+ 0.1 1 2 cbr 1000 ------- 2 1.0 2.0 0 0
- 0.1 1 2 cbr 1000 ------- 2 1.0 2.0 0 0
+ 0.104 1 2 cbr 1000 ------- 2 1.0 2.0 1 1
- 0.104 1 2 cbr 1000 ------- 2 1.0 2.0 1 1
+ 0.108 1 2 cbr 1000 ------- 2 1.0 2.0 2 2
- 0.108 1 2 cbr 1000 ------- 2 1.0 2.0 2 2
r 0.1108 1 2 cbr 1000 ------- 2 1.0 2.0 0 0
+ 0.112 1 2 cbr 1000 ------- 2 1.0 2.0 3 3
- 0.112 1 2 cbr 1000 ------- 2 1.0 2.0 3 3
r 0.1148 1 2 cbr 1000 ------- 2 1.0 2.0 1 1
+ 0.116 1 2 cbr 1000 ------- 2 1.0 2.0 4 4
- 0.116 1 2 cbr 1000 ------- 2 1.0 2.0 4 4
r 0.1188 1 2 cbr 1000 ------- 2 1.0 2.0 2 2
+ 0.12 1 2 cbr 1000 ------- 2 1.0 2.0 5 5
- 0.12 1 2 cbr 1000 ------- 2 1.0 2.0 5 5
r 0.1228 1 2 cbr 1000 ------- 2 1.0 2.0 3 3
+ 0.124 1 2 cbr 1000 ------- 2 1.0 2.0 6 6
- 0.124 1 2 cbr 1000 ------- 2 1.0 2.0 6 6
r 0.1268 1 2 cbr 1000 ------- 2 1.0 2.0 4 4
+ 0.128 1 2 cbr 1000 ------- 2 1.0 2.0 7 7
- 0.128 1 2 cbr 1000 ------- 2 1.0 2.0 7 7
r 0.1308 1 2 cbr 1000 ------- 2 1.0 2.0 5 5
+ 0.132 1 2 cbr 1000 ------- 2 1.0 2.0 8 8
- 0.132 1 2 cbr 1000 ------- 2 1.0 2.0 8 8
r 0.1348 1 2 cbr 1000 ------- 2 1.0 2.0 6 6
+ 0.136 1 2 cbr 1000 ------- 2 1.0 2.0 9 9
- 0.136 1 2 cbr 1000 ------- 2 1.0 2.0 9 9
r 0.1388 1 2 cbr 1000 ------- 2 1.0 2.0 7 7
+ 0.14 1 2 cbr 1000 ------- 2 1.0 2.0 10 10
- 0.14 1 2 cbr 1000 ------- 2 1.0 2.0 10 10
r 0.1428 1 2 cbr 1000 ------- 2 1.0 2.0 8 8
+ 0.144 1 2 cbr 1000 ------- 2 1.0 2.0 11 11
- 0.144 1 2 cbr 1000 ------- 2 1.0 2.0 11 11
r 0.1468 1 2 cbr 1000 ------- 2 1.0 2.0 9 9
+ 0.148 1 2 cbr 1000 ------- 2 1.0 2.0 12 12
- 0.148 1 2 cbr 1000 ------- 2 1.0 2.0 12 12
r 0.1508 1 2 cbr 1000 ------- 2 1.0 2.0 10 10
+ 0.152 1 2 cbr 1000 ------- 2 1.0 2.0 13 13
- 0.152 1 2 cbr 1000 ------- 2 1.0 2.0 13 13
r 0.1548 1 2 cbr 1000 ------- 2 1.0 2.0 11 11
+ 0.156 1 2 cbr 1000 ------- 2 1.0 2.0 14 14
- 0.156 1 2 cbr 1000 ------- 2 1.0 2.0 14 14
r 0.1588 1 2 cbr 1000 ------- 2 1.0 2.0 12 12
+ 0.16 1 2 cbr 1000 ------- 2 1.0 2.0 15 15
- 0.16 1 2 cbr 1000 ------- 2 1.0 2.0 15 15
r 0.1628 1 2 cbr 1000 ------- 2 1.0 2.0 13 13
+ 0.164 1 2 cbr 1000 ------- 2 1.0 2.0 16 16
- 0.164 1 2 cbr 1000 ------- 2 1.0 2.0 16 16
r 0.1668 1 2 cbr 1000 ------- 2 1.0 2.0 14 14
+ 0.168 1 2 cbr 1000 ------- 2 1.0 2.0 17 17
- 0.168 1 2 cbr 1000 ------- 2 1.0 2.0 17 17
r 0.1708 1 2 cbr 1000 ------- 2 1.0 2.0 15 15
+ 0.172 1 2 cbr 1000 ------- 2 1.0 2.0 18 18
- 0.172 1 2 cbr 1000 ------- 2 1.0 2.0 18 18
r 0.1748 1 2 cbr 1000 ------- 2 1.0 2.0 16 16
+ 0.176 1 2 cbr 1000 ------- 2 1.0 2.0 19 19
- 0.176 1 2 cbr 1000 ------- 2 1.0 2.0 19 19
r 0.1788 1 2 cbr 1000 ------- 2 1.0 2.0 17 17
+ 0.18 1 2 cbr 1000 ------- 2 1.0 2.0 20 20
- 0.18 1 2 cbr 1000 ------- 2 1.0 2.0 20 20
r 0.1828 1 2 cbr 1000 ------- 2 1.0 2.0 18 18
+ 0.184 1 2 cbr 1000 ------- 2 1.0 2.0 21 21
- 0.184 1 2 cbr 1000 ------- 2 1.0 2.0 21 21
r 0.1868 1 2 cbr 1000 ------- 2 1.0 2.0 19 19
+ 0.188 1 2 cbr 1000 ------- 2 1.0 2.0 22 22
- 0.188 1 2 cbr 1000 ------- 2 1.0 2.0 22 22
r 0.1908 1 2 cbr 1000 ------- 2 1.0 2.0 20 20
+ 0.192 1 2 cbr 1000 ------- 2 1.0 2.0 23 23
- 0.192 1 2 cbr 1000 ------- 2 1.0 2.0 23 23
r 0.1948 1 2 cbr 1000 ------- 2 1.0 2.0 21 21
+ 0.196 1 2 cbr 1000 ------- 2 1.0 2.0 24 24
- 0.196 1 2 cbr 1000 ------- 2 1.0 2.0 24 24
r 0.1988 1 2 cbr 1000 ------- 2 1.0 2.0 22 22
+ 0.2 1 2 cbr 1000 ------- 2 1.0 2.0 25 25
- 0.2 1 2 cbr 1000 ------- 2 1.0 2.0 25 25
r 0.2028 1 2 cbr 1000 ------- 2 1.0 2.0 23 23
+ 0.204 1 2 cbr 1000 ------- 2 1.0 2.0 26 26
- 0.204 1 2 cbr 1000 ------- 2 1.0 2.0 26 26
r 0.2068 1 2 cbr 1000 ------- 2 1.0 2.0 24 24
+ 0.208 1 2 cbr 1000 ------- 2 1.0 2.0 27 27
- 0.208 1 2 cbr 1000 ------- 2 1.0 2.0 27 27
r 0.2108 1 2 cbr 1000 ------- 2 1.0 2.0 25 25
+ 0.212 1 2 cbr 1000 ------- 2 1.0 2.0 28 28
- 0.212 1 2 cbr 1000 ------- 2 1.0 2.0 28 28
r 0.2148 1 2 cbr 1000 ------- 2 1.0 2.0 26 26
+ 0.216 1 2 cbr 1000 ------- 2 1.0 2.0 29 29
- 0.216 1 2 cbr 1000 ------- 2 1.0 2.0 29 29
r 0.2188 1 2 cbr 1000 ------- 2 1.0 2.0 27 27
+ 0.22 1 2 cbr 1000 ------- 2 1.0 2.0 30 30
- 0.22 1 2 cbr 1000 ------- 2 1.0 2.0 30 30
r 0.2228 1 2 cbr 1000 ------- 2 1.0 2.0 28 28
+ 0.224 1 2 cbr 1000 ------- 2 1.0 2.0 31 31
- 0.224 1 2 cbr 1000 ------- 2 1.0 2.0 31 31
r 0.2268 1 2 cbr 1000 ------- 2 1.0 2.0 29 29
+ 0.228 1 2 cbr 1000 ------- 2 1.0 2.0 32 32
- 0.228 1 2 cbr 1000 ------- 2 1.0 2.0 32 32
r 0.2308 1 2 cbr 1000 ------- 2 1.0 2.0 30 30
+ 0.232 1 2 cbr 1000 ------- 2 1.0 2.0 33 33
- 0.232 1 2 cbr 1000 ------- 2 1.0 2.0 33 33
r 0.2348 1 2 cbr 1000 ------- 2 1.0 2.0 31 31
+ 0.236 1 2 cbr 1000 ------- 2 1.0 2.0 34 34
- 0.236 1 2 cbr 1000 ------- 2 1.0 2.0 34 34
r 0.2388 1 2 cbr 1000 ------- 2 1.0 2.0 32 32
+ 0.24 1 2 cbr 1000 ------- 2 1.0 2.0 35 35
- 0.24 1 2 cbr 1000 ------- 2 1.0 2.0 35 35
r 0.2428 1 2 cbr 1000 ------- 2 1.0 2.0 33 33
+ 0.244 1 2 cbr 1000 ------- 2 1.0 2.0 36 36
- 0.244 1 2 cbr 1000 ------- 2 1.0 2.0 36 36
r 0.2468 1 2 cbr 1000 ------- 2 1.0 2.0 34 34
+ 0.248 1 2 cbr 1000 ------- 2 1.0 2.0 37 37
- 0.248 1 2 cbr 1000 ------- 2 1.0 2.0 37 37
r 0.2508 1 2 cbr 1000 ------- 2 1.0 2.0 35 35
+ 0.252 1 2 cbr 1000 ------- 2 1.0 2.0 38 38
- 0.252 1 2 cbr 1000 ------- 2 1.0 2.0 38 38
r 0.2548 1 2 cbr 1000 ------- 2 1.0 2.0 36 36
+ 0.256 1 2 cbr 1000 ------- 2 1.0 2.0 39 39
- 0.256 1 2 cbr 1000 ------- 2 1.0 2.0 39 39
r 0.2588 1 2 cbr 1000 ------- 2 1.0 2.0 37 37
+ 0.26 1 2 cbr 1000 ------- 2 1.0 2.0 40 40
- 0.26 1 2 cbr 1000 ------- 2 1.0 2.0 40 40
r 0.2628 1 2 cbr 1000 ------- 2 1.0 2.0 38 38
+ 0.264 1 2 cbr 1000 ------- 2 1.0 2.0 41 41
- 0.264 1 2 cbr 1000 ------- 2 1.0 2.0 41 41
r 0.2668 1 2 cbr 1000 ------- 2 1.0 2.0 39 39
+ 0.268 1 2 cbr 1000 ------- 2 1.0 2.0 42 42
- 0.268 1 2 cbr 1000 ------- 2 1.0 2.0 42 42
r 0.2708 1 2 cbr 1000 ------- 2 1.0 2.0 40 40
+ 0.272 1 2 cbr 1000 ------- 2 1.0 2.0 43 43
- 0.272 1 2 cbr 1000 ------- 2 1.0 2.0 43 43
r 0.2748 1 2 cbr 1000 ------- 2 1.0 2.0 41 41
+ 0.276 1 2 cbr 1000 ------- 2 1.0 2.0 44 44
- 0.276 1 2 cbr 1000 ------- 2 1.0 2.0 44 44
r 0.2788 1 2 cbr 1000 ------- 2 1.0 2.0 42 42
+ 0.28 1 2 cbr 1000 ------- 2 1.0 2.0 45 45
- 0.28 1 2 cbr 1000 ------- 2 1.0 2.0 45 45
r 0.2828 1 2 cbr 1000 ------- 2 1.0 2.0 43 43
+ 0.284 1 2 cbr 1000 ------- 2 1.0 2.0 46 46
- 0.284 1 2 cbr 1000 ------- 2 1.0 2.0 46 46
r 0.2868 1 2 cbr 1000 ------- 2 1.0 2.0 44 44
+ 0.288 1 2 cbr 1000 ------- 2 1.0 2.0 47 47
- 0.288 1 2 cbr 1000 ------- 2 1.0 2.0 47 47
r 0.2908 1 2 cbr 1000 ------- 2 1.0 2.0 45 45
+ 0.292 1 2 cbr 1000 ------- 2 1.0 2.0 48 48
- 0.292 1 2 cbr 1000 ------- 2 1.0 2.0 48 48
r 0.2948 1 2 cbr 1000 ------- 2 1.0 2.0 46 46
+ 0.296 1 2 cbr 1000 ------- 2 1.0 2.0 49 49
- 0.296 1 2 cbr 1000 ------- 2 1.0 2.0 49 49
r 0.2988 1 2 cbr 1000 ------- 2 1.0 2.0 47 47
+ 0.3 1 2 cbr 1000 ------- 2 1.0 2.0 50 50
- 0.3 1 2 cbr 1000 ------- 2 1.0 2.0 50 50
r 0.3028 1 2 cbr 1000 ------- 2 1.0 2.0 48 48
+ 0.304 1 2 cbr 1000 ------- 2 1.0 2.0 51 51
- 0.304 1 2 cbr 1000 ------- 2 1.0 2.0 51 51
r 0.3068 1 2 cbr 1000 ------- 2 1.0 2.0 49 49
+ 0.308 1 2 cbr 1000 ------- 2 1.0 2.0 52 52
- 0.308 1 2 cbr 1000 ------- 2 1.0 2.0 52 52
r 0.3108 1 2 cbr 1000 ------- 2 1.0 2.0 50 50
+ 0.312 1 2 cbr 1000 ------- 2 1.0 2.0 53 53
- 0.312 1 2 cbr 1000 ------- 2 1.0 2.0 53 53
r 0.3148 1 2 cbr 1000 ------- 2 1.0 2.0 51 51
+ 0.316 1 2 cbr 1000 ------- 2 1.0 2.0 54 54
- 0.316 1 2 cbr 1000 ------- 2 1.0 2.0 54 54
r 0.3188 1 2 cbr 1000 ------- 2 1.0 2.0 52 52
+ 0.32 1 2 cbr 1000 ------- 2 1.0 2.0 55 55
- 0.32 1 2 cbr 1000 ------- 2 1.0 2.0 55 55
r 0.3228 1 2 cbr 1000 ------- 2 1.0 2.0 53 53
+ 0.324 1 2 cbr 1000 ------- 2 1.0 2.0 56 56
- 0.324 1 2 cbr 1000 ------- 2 1.0 2.0 56 56
r 0.3268 1 2 cbr 1000 ------- 2 1.0 2.0 54 54
+ 0.328 1 2 cbr 1000 ------- 2 1.0 2.0 57 57
- 0.328 1 2 cbr 1000 ------- 2 1.0 2.0 57 57
r 0.3308 1 2 cbr 1000 ------- 2 1.0 2.0 55 55
+ 0.332 1 2 cbr 1000 ------- 2 1.0 2.0 58 58
- 0.332 1 2 cbr 1000 ------- 2 1.0 2.0 58 58
r 0.3348 1 2 cbr 1000 ------- 2 1.0 2.0 56 56
+ 0.336 1 2 cbr 1000 ------- 2 1.0 2.0 59 59
- 0.336 1 2 cbr 1000 ------- 2 1.0 2.0 59 59
r 0.3388 1 2 cbr 1000 ------- 2 1.0 2.0 57 57
+ 0.34 1 2 cbr 1000 ------- 2 1.0 2.0 60 60
- 0.34 1 2 cbr 1000 ------- 2 1.0 2.0 60 60
r 0.3428 1 2 cbr 1000 ------- 2 1.0 2.0 58 58
+ 0.344 1 2 cbr 1000 ------- 2 1.0 2.0 61 61
- 0.344 1 2 cbr 1000 ------- 2 1.0 2.0 61 61
r 0.3468 1 2 cbr 1000 ------- 2 1.0 2.0 59 59
+ 0.348 1 2 cbr 1000 ------- 2 1.0 2.0 62 62
- 0.348 1 2 cbr 1000 ------- 2 1.0 2.0 62 62
r 0.3508 1 2 cbr 1000 ------- 2 1.0 2.0 60 60
+ 0.352 1 2 cbr 1000 ------- 2 1.0 2.0 63 63
- 0.352 1 2 cbr 1000 ------- 2 1.0 2.0 63 63
r 0.3548 1 2 cbr 1000 ------- 2 1.0 2.0 61 61
+ 0.356 1 2 cbr 1000 ------- 2 1.0 2.0 64 64
- 0.356 1 2 cbr 1000 ------- 2 1.0 2.0 64 64
r 0.3588 1 2 cbr 1000 ------- 2 1.0 2.0 62 62
+ 0.36 1 2 cbr 1000 ------- 2 1.0 2.0 65 65
- 0.36 1 2 cbr 1000 ------- 2 1.0 2.0 65 65
r 0.3628 1 2 cbr 1000 ------- 2 1.0 2.0 63 63
+ 0.364 1 2 cbr 1000 ------- 2 1.0 2.0 66 66
- 0.364 1 2 cbr 1000 ------- 2 1.0 2.0 66 66
r 0.3668 1 2 cbr 1000 ------- 2 1.0 2.0 64 64
+ 0.368 1 2 cbr 1000 ------- 2 1.0 2.0 67 67
- 0.368 1 2 cbr 1000 ------- 2 1.0 2.0 67 67
r 0.3708 1 2 cbr 1000 ------- 2 1.0 2.0 65 65
+ 0.372 1 2 cbr 1000 ------- 2 1.0 2.0 68 68
- 0.372 1 2 cbr 1000 ------- 2 1.0 2.0 68 68
r 0.3748 1 2 cbr 1000 ------- 2 1.0 2.0 66 66
+ 0.376 1 2 cbr 1000 ------- 2 1.0 2.0 69 69
- 0.376 1 2 cbr 1000 ------- 2 1.0 2.0 69 69
r 0.3788 1 2 cbr 1000 ------- 2 1.0 2.0 67 67
+ 0.38 1 2 cbr 1000 ------- 2 1.0 2.0 70 70
- 0.38 1 2 cbr 1000 ------- 2 1.0 2.0 70 70
r 0.3828 1 2 cbr 1000 ------- 2 1.0 2.0 68 68
+ 0.384 1 2 cbr 1000 ------- 2 1.0 2.0 71 71
- 0.384 1 2 cbr 1000 ------- 2 1.0 2.0 71 71
r 0.3868 1 2 cbr 1000 ------- 2 1.0 2.0 69 69
+ 0.388 1 2 cbr 1000 ------- 2 1.0 2.0 72 72
- 0.388 1 2 cbr 1000 ------- 2 1.0 2.0 72 72
r 0.3908 1 2 cbr 1000 ------- 2 1.0 2.0 70 70
+ 0.392 1 2 cbr 1000 ------- 2 1.0 2.0 73 73
- 0.392 1 2 cbr 1000 ------- 2 1.0 2.0 73 73
r 0.3948 1 2 cbr 1000 ------- 2 1.0 2.0 71 71
+ 0.396 1 2 cbr 1000 ------- 2 1.0 2.0 74 74
- 0.396 1 2 cbr 1000 ------- 2 1.0 2.0 74 74
r 0.3988 1 2 cbr 1000 ------- 2 1.0 2.0 72 72
+ 0.4 1 2 cbr 1000 ------- 2 1.0 2.0 75 75
- 0.4 1 2 cbr 1000 ------- 2 1.0 2.0 75 75
r 0.4028 1 2 cbr 1000 ------- 2 1.0 2.0 73 73
+ 0.404 1 2 cbr 1000 ------- 2 1.0 2.0 76 76
- 0.404 1 2 cbr 1000 ------- 2 1.0 2.0 76 76
r 0.4068 1 2 cbr 1000 ------- 2 1.0 2.0 74 74
+ 0.408 1 2 cbr 1000 ------- 2 1.0 2.0 77 77
- 0.408 1 2 cbr 1000 ------- 2 1.0 2.0 77 77
r 0.4108 1 2 cbr 1000 ------- 2 1.0 2.0 75 75
+ 0.412 1 2 cbr 1000 ------- 2 1.0 2.0 78 78
- 0.412 1 2 cbr 1000 ------- 2 1.0 2.0 78 78
r 0.4148 1 2 cbr 1000 ------- 2 1.0 2.0 76 76
+ 0.416 1 2 cbr 1000 ------- 2 1.0 2.0 79 79
- 0.416 1 2 cbr 1000 ------- 2 1.0 2.0 79 79
r 0.4188 1 2 cbr 1000 ------- 2 1.0 2.0 77 77
+ 0.42 1 2 cbr 1000 ------- 2 1.0 2.0 80 80
- 0.42 1 2 cbr 1000 ------- 2 1.0 2.0 80 80
r 0.4228 1 2 cbr 1000 ------- 2 1.0 2.0 78 78
+ 0.424 1 2 cbr 1000 ------- 2 1.0 2.0 81 81
- 0.424 1 2 cbr 1000 ------- 2 1.0 2.0 81 81
r 0.4268 1 2 cbr 1000 ------- 2 1.0 2.0 79 79
+ 0.428 1 2 cbr 1000 ------- 2 1.0 2.0 82 82
- 0.428 1 2 cbr 1000 ------- 2 1.0 2.0 82 82
r 0.4308 1 2 cbr 1000 ------- 2 1.0 2.0 80 80
+ 0.432 1 2 cbr 1000 ------- 2 1.0 2.0 83 83
- 0.432 1 2 cbr 1000 ------- 2 1.0 2.0 83 83
r 0.4348 1 2 cbr 1000 ------- 2 1.0 2.0 81 81
+ 0.436 1 2 cbr 1000 ------- 2 1.0 2.0 84 84
- 0.436 1 2 cbr 1000 ------- 2 1.0 2.0 84 84
r 0.4388 1 2 cbr 1000 ------- 2 1.0 2.0 82 82
+ 0.44 1 2 cbr 1000 ------- 2 1.0 2.0 85 85
- 0.44 1 2 cbr 1000 ------- 2 1.0 2.0 85 85
r 0.4428 1 2 cbr 1000 ------- 2 1.0 2.0 83 83
+ 0.444 1 2 cbr 1000 ------- 2 1.0 2.0 86 86
- 0.444 1 2 cbr 1000 ------- 2 1.0 2.0 86 86
r 0.4468 1 2 cbr 1000 ------- 2 1.0 2.0 84 84
+ 0.448 1 2 cbr 1000 ------- 2 1.0 2.0 87 87
- 0.448 1 2 cbr 1000 ------- 2 1.0 2.0 87 87
r 0.4508 1 2 cbr 1000 ------- 2 1.0 2.0 85 85
+ 0.452 1 2 cbr 1000 ------- 2 1.0 2.0 88 88
- 0.452 1 2 cbr 1000 ------- 2 1.0 2.0 88 88
r 0.4548 1 2 cbr 1000 ------- 2 1.0 2.0 86 86
+ 0.456 1 2 cbr 1000 ------- 2 1.0 2.0 89 89
- 0.456 1 2 cbr 1000 ------- 2 1.0 2.0 89 89
r 0.4588 1 2 cbr 1000 ------- 2 1.0 2.0 87 87
+ 0.46 1 2 cbr 1000 ------- 2 1.0 2.0 90 90
- 0.46 1 2 cbr 1000 ------- 2 1.0 2.0 90 90
r 0.4628 1 2 cbr 1000 ------- 2 1.0 2.0 88 88
+ 0.464 1 2 cbr 1000 ------- 2 1.0 2.0 91 91
- 0.464 1 2 cbr 1000 ------- 2 1.0 2.0 91 91
r 0.4668 1 2 cbr 1000 ------- 2 1.0 2.0 89 89
+ 0.468 1 2 cbr 1000 ------- 2 1.0 2.0 92 92
- 0.468 1 2 cbr 1000 ------- 2 1.0 2.0 92 92
r 0.4708 1 2 cbr 1000 ------- 2 1.0 2.0 90 90
+ 0.472 1 2 cbr 1000 ------- 2 1.0 2.0 93 93
- 0.472 1 2 cbr 1000 ------- 2 1.0 2.0 93 93
r 0.4748 1 2 cbr 1000 ------- 2 1.0 2.0 91 91
+ 0.476 1 2 cbr 1000 ------- 2 1.0 2.0 94 94
- 0.476 1 2 cbr 1000 ------- 2 1.0 2.0 94 94
r 0.4788 1 2 cbr 1000 ------- 2 1.0 2.0 92 92
+ 0.48 1 2 cbr 1000 ------- 2 1.0 2.0 95 95
- 0.48 1 2 cbr 1000 ------- 2 1.0 2.0 95 95
r 0.4828 1 2 cbr 1000 ------- 2 1.0 2.0 93 93
+ 0.484 1 2 cbr 1000 ------- 2 1.0 2.0 96 96
- 0.484 1 2 cbr 1000 ------- 2 1.0 2.0 96 96
r 0.4868 1 2 cbr 1000 ------- 2 1.0 2.0 94 94
+ 0.488 1 2 cbr 1000 ------- 2 1.0 2.0 97 97
- 0.488 1 2 cbr 1000 ------- 2 1.0 2.0 97 97
r 0.4908 1 2 cbr 1000 ------- 2 1.0 2.0 95 95
+ 0.492 1 2 cbr 1000 ------- 2 1.0 2.0 98 98
- 0.492 1 2 cbr 1000 ------- 2 1.0 2.0 98 98
r 0.4948 1 2 cbr 1000 ------- 2 1.0 2.0 96 96
+ 0.496 1 2 cbr 1000 ------- 2 1.0 2.0 99 99
- 0.496 1 2 cbr 1000 ------- 2 1.0 2.0 99 99
r 0.4988 1 2 cbr 1000 ------- 2 1.0 2.0 97 97
+ 0.5 1 2 cbr 1000 ------- 2 1.0 2.0 100 100
- 0.5 1 2 cbr 1000 ------- 2 1.0 2.0 100 100
r 0.5028 1 2 cbr 1000 ------- 2 1.0 2.0 98 98
+ 0.504 1 2 cbr 1000 ------- 2 1.0 2.0 101 101
- 0.504 1 2 cbr 1000 ------- 2 1.0 2.0 101 101
r 0.5068 1 2 cbr 1000 ------- 2 1.0 2.0 99 99
+ 0.508 1 2 cbr 1000 ------- 2 1.0 2.0 102 102
- 0.508 1 2 cbr 1000 ------- 2 1.0 2.0 102 102
r 0.5108 1 2 cbr 1000 ------- 2 1.0 2.0 100 100
+ 0.512 1 2 cbr 1000 ------- 2 1.0 2.0 103 103
- 0.512 1 2 cbr 1000 ------- 2 1.0 2.0 103 103
r 0.5148 1 2 cbr 1000 ------- 2 1.0 2.0 101 101
+ 0.516 1 2 cbr 1000 ------- 2 1.0 2.0 104 104
- 0.516 1 2 cbr 1000 ------- 2 1.0 2.0 104 104
r 0.5188 1 2 cbr 1000 ------- 2 1.0 2.0 102 102
+ 0.52 1 2 cbr 1000 ------- 2 1.0 2.0 105 105
- 0.52 1 2 cbr 1000 ------- 2 1.0 2.0 105 105
r 0.5228 1 2 cbr 1000 ------- 2 1.0 2.0 103 103
+ 0.524 1 2 cbr 1000 ------- 2 1.0 2.0 106 106
- 0.524 1 2 cbr 1000 ------- 2 1.0 2.0 106 106
r 0.5268 1 2 cbr 1000 ------- 2 1.0 2.0 104 104
+ 0.528 1 2 cbr 1000 ------- 2 1.0 2.0 107 107
- 0.528 1 2 cbr 1000 ------- 2 1.0 2.0 107 107
r 0.5308 1 2 cbr 1000 ------- 2 1.0 2.0 105 105
+ 0.532 1 2 cbr 1000 ------- 2 1.0 2.0 108 108
- 0.532 1 2 cbr 1000 ------- 2 1.0 2.0 108 108
r 0.5348 1 2 cbr 1000 ------- 2 1.0 2.0 106 106
+ 0.536 1 2 cbr 1000 ------- 2 1.0 2.0 109 109
- 0.536 1 2 cbr 1000 ------- 2 1.0 2.0 109 109
r 0.5388 1 2 cbr 1000 ------- 2 1.0 2.0 107 107
+ 0.54 1 2 cbr 1000 ------- 2 1.0 2.0 110 110
- 0.54 1 2 cbr 1000 ------- 2 1.0 2.0 110 110
r 0.5428 1 2 cbr 1000 ------- 2 1.0 2.0 108 108
+ 0.544 1 2 cbr 1000 ------- 2 1.0 2.0 111 111
- 0.544 1 2 cbr 1000 ------- 2 1.0 2.0 111 111
r 0.5468 1 2 cbr 1000 ------- 2 1.0 2.0 109 109
+ 0.548 1 2 cbr 1000 ------- 2 1.0 2.0 112 112
- 0.548 1 2 cbr 1000 ------- 2 1.0 2.0 112 112
r 0.5508 1 2 cbr 1000 ------- 2 1.0 2.0 110 110
+ 0.552 1 2 cbr 1000 ------- 2 1.0 2.0 113 113
- 0.552 1 2 cbr 1000 ------- 2 1.0 2.0 113 113
r 0.5548 1 2 cbr 1000 ------- 2 1.0 2.0 111 111
+ 0.556 1 2 cbr 1000 ------- 2 1.0 2.0 114 114
- 0.556 1 2 cbr 1000 ------- 2 1.0 2.0 114 114
r 0.5588 1 2 cbr 1000 ------- 2 1.0 2.0 112 112
+ 0.56 1 2 cbr 1000 ------- 2 1.0 2.0 115 115
- 0.56 1 2 cbr 1000 ------- 2 1.0 2.0 115 115
r 0.5628 1 2 cbr 1000 ------- 2 1.0 2.0 113 113
+ 0.564 1 2 cbr 1000 ------- 2 1.0 2.0 116 116
- 0.564 1 2 cbr 1000 ------- 2 1.0 2.0 116 116
r 0.5668 1 2 cbr 1000 ------- 2 1.0 2.0 114 114
+ 0.568 1 2 cbr 1000 ------- 2 1.0 2.0 117 117
- 0.568 1 2 cbr 1000 ------- 2 1.0 2.0 117 117
r 0.5708 1 2 cbr 1000 ------- 2 1.0 2.0 115 115
+ 0.572 1 2 cbr 1000 ------- 2 1.0 2.0 118 118
- 0.572 1 2 cbr 1000 ------- 2 1.0 2.0 118 118
r 0.5748 1 2 cbr 1000 ------- 2 1.0 2.0 116 116
+ 0.576 1 2 cbr 1000 ------- 2 1.0 2.0 119 119
- 0.576 1 2 cbr 1000 ------- 2 1.0 2.0 119 119
r 0.5788 1 2 cbr 1000 ------- 2 1.0 2.0 117 117
+ 0.58 1 2 cbr 1000 ------- 2 1.0 2.0 120 120
- 0.58 1 2 cbr 1000 ------- 2 1.0 2.0 120 120
r 0.5828 1 2 cbr 1000 ------- 2 1.0 2.0 118 118
+ 0.584 1 2 cbr 1000 ------- 2 1.0 2.0 121 121
- 0.584 1 2 cbr 1000 ------- 2 1.0 2.0 121 121
r 0.5868 1 2 cbr 1000 ------- 2 1.0 2.0 119 119
+ 0.588 1 2 cbr 1000 ------- 2 1.0 2.0 122 122
- 0.588 1 2 cbr 1000 ------- 2 1.0 2.0 122 122
r 0.5908 1 2 cbr 1000 ------- 2 1.0 2.0 120 120
+ 0.592 1 2 cbr 1000 ------- 2 1.0 2.0 123 123
- 0.592 1 2 cbr 1000 ------- 2 1.0 2.0 123 123
r 0.5948 1 2 cbr 1000 ------- 2 1.0 2.0 121 121
+ 0.596 1 2 cbr 1000 ------- 2 1.0 2.0 124 124
- 0.596 1 2 cbr 1000 ------- 2 1.0 2.0 124 124
r 0.5988 1 2 cbr 1000 ------- 2 1.0 2.0 122 122
+ 0.6 1 2 cbr 1000 ------- 2 1.0 2.0 125 125
- 0.6 1 2 cbr 1000 ------- 2 1.0 2.0 125 125
r 0.6028 1 2 cbr 1000 ------- 2 1.0 2.0 123 123
+ 0.604 1 2 cbr 1000 ------- 2 1.0 2.0 126 126
- 0.604 1 2 cbr 1000 ------- 2 1.0 2.0 126 126
r 0.6068 1 2 cbr 1000 ------- 2 1.0 2.0 124 124
+ 0.608 1 2 cbr 1000 ------- 2 1.0 2.0 127 127
- 0.608 1 2 cbr 1000 ------- 2 1.0 2.0 127 127
r 0.6108 1 2 cbr 1000 ------- 2 1.0 2.0 125 125
+ 0.612 1 2 cbr 1000 ------- 2 1.0 2.0 128 128
- 0.612 1 2 cbr 1000 ------- 2 1.0 2.0 128 128
r 0.6148 1 2 cbr 1000 ------- 2 1.0 2.0 126 126
+ 0.616 1 2 cbr 1000 ------- 2 1.0 2.0 129 129
- 0.616 1 2 cbr 1000 ------- 2 1.0 2.0 129 129
r 0.6188 1 2 cbr 1000 ------- 2 1.0 2.0 127 127
+ 0.62 1 2 cbr 1000 ------- 2 1.0 2.0 130 130
- 0.62 1 2 cbr 1000 ------- 2 1.0 2.0 130 130
r 0.6228 1 2 cbr 1000 ------- 2 1.0 2.0 128 128
+ 0.624 1 2 cbr 1000 ------- 2 1.0 2.0 131 131
- 0.624 1 2 cbr 1000 ------- 2 1.0 2.0 131 131
r 0.6268 1 2 cbr 1000 ------- 2 1.0 2.0 129 129
+ 0.628 1 2 cbr 1000 ------- 2 1.0 2.0 132 132
- 0.628 1 2 cbr 1000 ------- 2 1.0 2.0 132 132
r 0.6308 1 2 cbr 1000 ------- 2 1.0 2.0 130 130
+ 0.632 1 2 cbr 1000 ------- 2 1.0 2.0 133 133
- 0.632 1 2 cbr 1000 ------- 2 1.0 2.0 133 133
r 0.6348 1 2 cbr 1000 ------- 2 1.0 2.0 131 131
+ 0.636 1 2 cbr 1000 ------- 2 1.0 2.0 134 134
- 0.636 1 2 cbr 1000 ------- 2 1.0 2.0 134 134
r 0.6388 1 2 cbr 1000 ------- 2 1.0 2.0 132 132
+ 0.64 1 2 cbr 1000 ------- 2 1.0 2.0 135 135
- 0.64 1 2 cbr 1000 ------- 2 1.0 2.0 135 135
r 0.6428 1 2 cbr 1000 ------- 2 1.0 2.0 133 133
+ 0.644 1 2 cbr 1000 ------- 2 1.0 2.0 136 136
- 0.644 1 2 cbr 1000 ------- 2 1.0 2.0 136 136
r 0.6468 1 2 cbr 1000 ------- 2 1.0 2.0 134 134
+ 0.648 1 2 cbr 1000 ------- 2 1.0 2.0 137 137
- 0.648 1 2 cbr 1000 ------- 2 1.0 2.0 137 137
r 0.6508 1 2 cbr 1000 ------- 2 1.0 2.0 135 135
+ 0.652 1 2 cbr 1000 ------- 2 1.0 2.0 138 138
- 0.652 1 2 cbr 1000 ------- 2 1.0 2.0 138 138
r 0.6548 1 2 cbr 1000 ------- 2 1.0 2.0 136 136
+ 0.656 1 2 cbr 1000 ------- 2 1.0 2.0 139 139
- 0.656 1 2 cbr 1000 ------- 2 1.0 2.0 139 139
r 0.6588 1 2 cbr 1000 ------- 2 1.0 2.0 137 137
+ 0.66 1 2 cbr 1000 ------- 2 1.0 2.0 140 140
- 0.66 1 2 cbr 1000 ------- 2 1.0 2.0 140 140
r 0.6628 1 2 cbr 1000 ------- 2 1.0 2.0 138 138
+ 0.664 1 2 cbr 1000 ------- 2 1.0 2.0 141 141
- 0.664 1 2 cbr 1000 ------- 2 1.0 2.0 141 141
r 0.6668 1 2 cbr 1000 ------- 2 1.0 2.0 139 139
+ 0.668 1 2 cbr 1000 ------- 2 1.0 2.0 142 142
- 0.668 1 2 cbr 1000 ------- 2 1.0 2.0 142 142
r 0.6708 1 2 cbr 1000 ------- 2 1.0 2.0 140 140
+ 0.672 1 2 cbr 1000 ------- 2 1.0 2.0 143 143
- 0.672 1 2 cbr 1000 ------- 2 1.0 2.0 143 143
r 0.6748 1 2 cbr 1000 ------- 2 1.0 2.0 141 141
+ 0.676 1 2 cbr 1000 ------- 2 1.0 2.0 144 144
- 0.676 1 2 cbr 1000 ------- 2 1.0 2.0 144 144
r 0.6788 1 2 cbr 1000 ------- 2 1.0 2.0 142 142
+ 0.68 1 2 cbr 1000 ------- 2 1.0 2.0 145 145
- 0.68 1 2 cbr 1000 ------- 2 1.0 2.0 145 145
r 0.6828 1 2 cbr 1000 ------- 2 1.0 2.0 143 143
+ 0.684 1 2 cbr 1000 ------- 2 1.0 2.0 146 146
- 0.684 1 2 cbr 1000 ------- 2 1.0 2.0 146 146
r 0.6868 1 2 cbr 1000 ------- 2 1.0 2.0 144 144
+ 0.688 1 2 cbr 1000 ------- 2 1.0 2.0 147 147
- 0.688 1 2 cbr 1000 ------- 2 1.0 2.0 147 147
r 0.6908 1 2 cbr 1000 ------- 2 1.0 2.0 145 145
+ 0.692 1 2 cbr 1000 ------- 2 1.0 2.0 148 148
- 0.692 1 2 cbr 1000 ------- 2 1.0 2.0 148 148
r 0.6948 1 2 cbr 1000 ------- 2 1.0 2.0 146 146
+ 0.696 1 2 cbr 1000 ------- 2 1.0 2.0 149 149
- 0.696 1 2 cbr 1000 ------- 2 1.0 2.0 149 149
r 0.6988 1 2 cbr 1000 ------- 2 1.0 2.0 147 147
+ 0.7 1 2 cbr 1000 ------- 2 1.0 2.0 150 150
- 0.7 1 2 cbr 1000 ------- 2 1.0 2.0 150 150
r 0.7028 1 2 cbr 1000 ------- 2 1.0 2.0 148 148
+ 0.704 1 2 cbr 1000 ------- 2 1.0 2.0 151 151
- 0.704 1 2 cbr 1000 ------- 2 1.0 2.0 151 151
r 0.7068 1 2 cbr 1000 ------- 2 1.0 2.0 149 149
+ 0.708 1 2 cbr 1000 ------- 2 1.0 2.0 152 152
- 0.708 1 2 cbr 1000 ------- 2 1.0 2.0 152 152
r 0.7108 1 2 cbr 1000 ------- 2 1.0 2.0 150 150
+ 0.712 1 2 cbr 1000 ------- 2 1.0 2.0 153 153
- 0.712 1 2 cbr 1000 ------- 2 1.0 2.0 153 153
r 0.7148 1 2 cbr 1000 ------- 2 1.0 2.0 151 151
+ 0.716 1 2 cbr 1000 ------- 2 1.0 2.0 154 154
- 0.716 1 2 cbr 1000 ------- 2 1.0 2.0 154 154
r 0.7188 1 2 cbr 1000 ------- 2 1.0 2.0 152 152
+ 0.72 1 2 cbr 1000 ------- 2 1.0 2.0 155 155
- 0.72 1 2 cbr 1000 ------- 2 1.0 2.0 155 155
r 0.7228 1 2 cbr 1000 ------- 2 1.0 2.0 153 153
+ 0.724 1 2 cbr 1000 ------- 2 1.0 2.0 156 156
- 0.724 1 2 cbr 1000 ------- 2 1.0 2.0 156 156
r 0.7268 1 2 cbr 1000 ------- 2 1.0 2.0 154 154
+ 0.728 1 2 cbr 1000 ------- 2 1.0 2.0 157 157
- 0.728 1 2 cbr 1000 ------- 2 1.0 2.0 157 157
r 0.7308 1 2 cbr 1000 ------- 2 1.0 2.0 155 155
+ 0.732 1 2 cbr 1000 ------- 2 1.0 2.0 158 158
- 0.732 1 2 cbr 1000 ------- 2 1.0 2.0 158 158
r 0.7348 1 2 cbr 1000 ------- 2 1.0 2.0 156 156
+ 0.736 1 2 cbr 1000 ------- 2 1.0 2.0 159 159
- 0.736 1 2 cbr 1000 ------- 2 1.0 2.0 159 159
r 0.7388 1 2 cbr 1000 ------- 2 1.0 2.0 157 157
+ 0.74 1 2 cbr 1000 ------- 2 1.0 2.0 160 160
- 0.74 1 2 cbr 1000 ------- 2 1.0 2.0 160 160
r 0.7428 1 2 cbr 1000 ------- 2 1.0 2.0 158 158
+ 0.744 1 2 cbr 1000 ------- 2 1.0 2.0 161 161
- 0.744 1 2 cbr 1000 ------- 2 1.0 2.0 161 161
r 0.7468 1 2 cbr 1000 ------- 2 1.0 2.0 159 159
+ 0.748 1 2 cbr 1000 ------- 2 1.0 2.0 162 162
- 0.748 1 2 cbr 1000 ------- 2 1.0 2.0 162 162
r 0.7508 1 2 cbr 1000 ------- 2 1.0 2.0 160 160
+ 0.752 1 2 cbr 1000 ------- 2 1.0 2.0 163 163
- 0.752 1 2 cbr 1000 ------- 2 1.0 2.0 163 163
r 0.7548 1 2 cbr 1000 ------- 2 1.0 2.0 161 161
+ 0.756 1 2 cbr 1000 ------- 2 1.0 2.0 164 164
- 0.756 1 2 cbr 1000 ------- 2 1.0 2.0 164 164
r 0.7588 1 2 cbr 1000 ------- 2 1.0 2.0 162 162
+ 0.76 1 2 cbr 1000 ------- 2 1.0 2.0 165 165
- 0.76 1 2 cbr 1000 ------- 2 1.0 2.0 165 165
r 0.7628 1 2 cbr 1000 ------- 2 1.0 2.0 163 163
+ 0.764 1 2 cbr 1000 ------- 2 1.0 2.0 166 166
- 0.764 1 2 cbr 1000 ------- 2 1.0 2.0 166 166
r 0.7668 1 2 cbr 1000 ------- 2 1.0 2.0 164 164
+ 0.768 1 2 cbr 1000 ------- 2 1.0 2.0 167 167
- 0.768 1 2 cbr 1000 ------- 2 1.0 2.0 167 167
r 0.7708 1 2 cbr 1000 ------- 2 1.0 2.0 165 165
+ 0.772 1 2 cbr 1000 ------- 2 1.0 2.0 168 168
- 0.772 1 2 cbr 1000 ------- 2 1.0 2.0 168 168
r 0.7748 1 2 cbr 1000 ------- 2 1.0 2.0 166 166
+ 0.776 1 2 cbr 1000 ------- 2 1.0 2.0 169 169
- 0.776 1 2 cbr 1000 ------- 2 1.0 2.0 169 169
r 0.7788 1 2 cbr 1000 ------- 2 1.0 2.0 167 167
+ 0.78 1 2 cbr 1000 ------- 2 1.0 2.0 170 170
- 0.78 1 2 cbr 1000 ------- 2 1.0 2.0 170 170
r 0.7828 1 2 cbr 1000 ------- 2 1.0 2.0 168 168
+ 0.784 1 2 cbr 1000 ------- 2 1.0 2.0 171 171
- 0.784 1 2 cbr 1000 ------- 2 1.0 2.0 171 171
r 0.7868 1 2 cbr 1000 ------- 2 1.0 2.0 169 169
+ 0.788 1 2 cbr 1000 ------- 2 1.0 2.0 172 172
- 0.788 1 2 cbr 1000 ------- 2 1.0 2.0 172 172
r 0.7908 1 2 cbr 1000 ------- 2 1.0 2.0 170 170
+ 0.792 1 2 cbr 1000 ------- 2 1.0 2.0 173 173
- 0.792 1 2 cbr 1000 ------- 2 1.0 2.0 173 173
r 0.7948 1 2 cbr 1000 ------- 2 1.0 2.0 171 171
+ 0.796 1 2 cbr 1000 ------- 2 1.0 2.0 174 174
- 0.796 1 2 cbr 1000 ------- 2 1.0 2.0 174 174
r 0.7988 1 2 cbr 1000 ------- 2 1.0 2.0 172 172
+ 0.8 1 2 cbr 1000 ------- 2 1.0 2.0 175 175
- 0.8 1 2 cbr 1000 ------- 2 1.0 2.0 175 175
r 0.8028 1 2 cbr 1000 ------- 2 1.0 2.0 173 173
+ 0.804 1 2 cbr 1000 ------- 2 1.0 2.0 176 176
- 0.804 1 2 cbr 1000 ------- 2 1.0 2.0 176 176
r 0.8068 1 2 cbr 1000 ------- 2 1.0 2.0 174 174
+ 0.808 1 2 cbr 1000 ------- 2 1.0 2.0 177 177
- 0.808 1 2 cbr 1000 ------- 2 1.0 2.0 177 177
r 0.8108 1 2 cbr 1000 ------- 2 1.0 2.0 175 175
+ 0.812 1 2 cbr 1000 ------- 2 1.0 2.0 178 178
- 0.812 1 2 cbr 1000 ------- 2 1.0 2.0 178 178
r 0.8148 1 2 cbr 1000 ------- 2 1.0 2.0 176 176
+ 0.816 1 2 cbr 1000 ------- 2 1.0 2.0 179 179
- 0.816 1 2 cbr 1000 ------- 2 1.0 2.0 179 179
r 0.8188 1 2 cbr 1000 ------- 2 1.0 2.0 177 177
+ 0.82 1 2 cbr 1000 ------- 2 1.0 2.0 180 180
- 0.82 1 2 cbr 1000 ------- 2 1.0 2.0 180 180
r 0.8228 1 2 cbr 1000 ------- 2 1.0 2.0 178 178
+ 0.824 1 2 cbr 1000 ------- 2 1.0 2.0 181 181
- 0.824 1 2 cbr 1000 ------- 2 1.0 2.0 181 181
r 0.8268 1 2 cbr 1000 ------- 2 1.0 2.0 179 179
+ 0.828 1 2 cbr 1000 ------- 2 1.0 2.0 182 182
- 0.828 1 2 cbr 1000 ------- 2 1.0 2.0 182 182
r 0.8308 1 2 cbr 1000 ------- 2 1.0 2.0 180 180
+ 0.832 1 2 cbr 1000 ------- 2 1.0 2.0 183 183
- 0.832 1 2 cbr 1000 ------- 2 1.0 2.0 183 183
r 0.8348 1 2 cbr 1000 ------- 2 1.0 2.0 181 181
+ 0.836 1 2 cbr 1000 ------- 2 1.0 2.0 184 184
- 0.836 1 2 cbr 1000 ------- 2 1.0 2.0 184 184
r 0.8388 1 2 cbr 1000 ------- 2 1.0 2.0 182 182
+ 0.84 1 2 cbr 1000 ------- 2 1.0 2.0 185 185
- 0.84 1 2 cbr 1000 ------- 2 1.0 2.0 185 185
r 0.8428 1 2 cbr 1000 ------- 2 1.0 2.0 183 183
+ 0.844 1 2 cbr 1000 ------- 2 1.0 2.0 186 186
- 0.844 1 2 cbr 1000 ------- 2 1.0 2.0 186 186
r 0.8468 1 2 cbr 1000 ------- 2 1.0 2.0 184 184
+ 0.848 1 2 cbr 1000 ------- 2 1.0 2.0 187 187
- 0.848 1 2 cbr 1000 ------- 2 1.0 2.0 187 187
r 0.8508 1 2 cbr 1000 ------- 2 1.0 2.0 185 185
+ 0.852 1 2 cbr 1000 ------- 2 1.0 2.0 188 188
- 0.852 1 2 cbr 1000 ------- 2 1.0 2.0 188 188
r 0.8548 1 2 cbr 1000 ------- 2 1.0 2.0 186 186
+ 0.856 1 2 cbr 1000 ------- 2 1.0 2.0 189 189
- 0.856 1 2 cbr 1000 ------- 2 1.0 2.0 189 189
r 0.8588 1 2 cbr 1000 ------- 2 1.0 2.0 187 187
+ 0.86 1 2 cbr 1000 ------- 2 1.0 2.0 190 190
- 0.86 1 2 cbr 1000 ------- 2 1.0 2.0 190 190
r 0.8628 1 2 cbr 1000 ------- 2 1.0 2.0 188 188
+ 0.864 1 2 cbr 1000 ------- 2 1.0 2.0 191 191
- 0.864 1 2 cbr 1000 ------- 2 1.0 2.0 191 191
r 0.8668 1 2 cbr 1000 ------- 2 1.0 2.0 189 189
+ 0.868 1 2 cbr 1000 ------- 2 1.0 2.0 192 192
- 0.868 1 2 cbr 1000 ------- 2 1.0 2.0 192 192
r 0.8708 1 2 cbr 1000 ------- 2 1.0 2.0 190 190
+ 0.872 1 2 cbr 1000 ------- 2 1.0 2.0 193 193
- 0.872 1 2 cbr 1000 ------- 2 1.0 2.0 193 193
r 0.8748 1 2 cbr 1000 ------- 2 1.0 2.0 191 191
+ 0.876 1 2 cbr 1000 ------- 2 1.0 2.0 194 194
- 0.876 1 2 cbr 1000 ------- 2 1.0 2.0 194 194
r 0.8788 1 2 cbr 1000 ------- 2 1.0 2.0 192 192
+ 0.88 1 2 cbr 1000 ------- 2 1.0 2.0 195 195
- 0.88 1 2 cbr 1000 ------- 2 1.0 2.0 195 195
r 0.8828 1 2 cbr 1000 ------- 2 1.0 2.0 193 193
+ 0.884 1 2 cbr 1000 ------- 2 1.0 2.0 196 196
- 0.884 1 2 cbr 1000 ------- 2 1.0 2.0 196 196
r 0.8868 1 2 cbr 1000 ------- 2 1.0 2.0 194 194
+ 0.888 1 2 cbr 1000 ------- 2 1.0 2.0 197 197
- 0.888 1 2 cbr 1000 ------- 2 1.0 2.0 197 197
r 0.8908 1 2 cbr 1000 ------- 2 1.0 2.0 195 195
+ 0.892 1 2 cbr 1000 ------- 2 1.0 2.0 198 198
- 0.892 1 2 cbr 1000 ------- 2 1.0 2.0 198 198
r 0.8948 1 2 cbr 1000 ------- 2 1.0 2.0 196 196
+ 0.896 1 2 cbr 1000 ------- 2 1.0 2.0 199 199
- 0.896 1 2 cbr 1000 ------- 2 1.0 2.0 199 199
r 0.8988 1 2 cbr 1000 ------- 2 1.0 2.0 197 197
+ 0.9 1 2 cbr 1000 ------- 2 1.0 2.0 200 200
- 0.9 1 2 cbr 1000 ------- 2 1.0 2.0 200 200
r 0.9028 1 2 cbr 1000 ------- 2 1.0 2.0 198 198
+ 0.904 1 2 cbr 1000 ------- 2 1.0 2.0 201 201
- 0.904 1 2 cbr 1000 ------- 2 1.0 2.0 201 201
r 0.9068 1 2 cbr 1000 ------- 2 1.0 2.0 199 199
+ 0.908 1 2 cbr 1000 ------- 2 1.0 2.0 202 202
- 0.908 1 2 cbr 1000 ------- 2 1.0 2.0 202 202
r 0.9108 1 2 cbr 1000 ------- 2 1.0 2.0 200 200
+ 0.912 1 2 cbr 1000 ------- 2 1.0 2.0 203 203
- 0.912 1 2 cbr 1000 ------- 2 1.0 2.0 203 203
r 0.9148 1 2 cbr 1000 ------- 2 1.0 2.0 201 201
+ 0.916 1 2 cbr 1000 ------- 2 1.0 2.0 204 204
- 0.916 1 2 cbr 1000 ------- 2 1.0 2.0 204 204
r 0.9188 1 2 cbr 1000 ------- 2 1.0 2.0 202 202
+ 0.92 1 2 cbr 1000 ------- 2 1.0 2.0 205 205
- 0.92 1 2 cbr 1000 ------- 2 1.0 2.0 205 205
r 0.9228 1 2 cbr 1000 ------- 2 1.0 2.0 203 203
+ 0.924 1 2 cbr 1000 ------- 2 1.0 2.0 206 206
- 0.924 1 2 cbr 1000 ------- 2 1.0 2.0 206 206
r 0.9268 1 2 cbr 1000 ------- 2 1.0 2.0 204 204
+ 0.928 1 2 cbr 1000 ------- 2 1.0 2.0 207 207
- 0.928 1 2 cbr 1000 ------- 2 1.0 2.0 207 207
r 0.9308 1 2 cbr 1000 ------- 2 1.0 2.0 205 205
+ 0.932 1 2 cbr 1000 ------- 2 1.0 2.0 208 208
- 0.932 1 2 cbr 1000 ------- 2 1.0 2.0 208 208
r 0.9348 1 2 cbr 1000 ------- 2 1.0 2.0 206 206
+ 0.936 1 2 cbr 1000 ------- 2 1.0 2.0 209 209
- 0.936 1 2 cbr 1000 ------- 2 1.0 2.0 209 209
r 0.9388 1 2 cbr 1000 ------- 2 1.0 2.0 207 207
+ 0.94 1 2 cbr 1000 ------- 2 1.0 2.0 210 210
- 0.94 1 2 cbr 1000 ------- 2 1.0 2.0 210 210
r 0.9428 1 2 cbr 1000 ------- 2 1.0 2.0 208 208
+ 0.944 1 2 cbr 1000 ------- 2 1.0 2.0 211 211
- 0.944 1 2 cbr 1000 ------- 2 1.0 2.0 211 211
r 0.9468 1 2 cbr 1000 ------- 2 1.0 2.0 209 209
+ 0.948 1 2 cbr 1000 ------- 2 1.0 2.0 212 212
- 0.948 1 2 cbr 1000 ------- 2 1.0 2.0 212 212
r 0.9508 1 2 cbr 1000 ------- 2 1.0 2.0 210 210
+ 0.952 1 2 cbr 1000 ------- 2 1.0 2.0 213 213
- 0.952 1 2 cbr 1000 ------- 2 1.0 2.0 213 213
r 0.9548 1 2 cbr 1000 ------- 2 1.0 2.0 211 211
+ 0.956 1 2 cbr 1000 ------- 2 1.0 2.0 214 214
- 0.956 1 2 cbr 1000 ------- 2 1.0 2.0 214 214
r 0.9588 1 2 cbr 1000 ------- 2 1.0 2.0 212 212
+ 0.96 1 2 cbr 1000 ------- 2 1.0 2.0 215 215
- 0.96 1 2 cbr 1000 ------- 2 1.0 2.0 215 215
r 0.9628 1 2 cbr 1000 ------- 2 1.0 2.0 213 213
+ 0.964 1 2 cbr 1000 ------- 2 1.0 2.0 216 216
- 0.964 1 2 cbr 1000 ------- 2 1.0 2.0 216 216
r 0.9668 1 2 cbr 1000 ------- 2 1.0 2.0 214 214
+ 0.968 1 2 cbr 1000 ------- 2 1.0 2.0 217 217