+ 0.1 1 2 cbr 1000 ------- 2 1.0 2.0 0 0
- 0.1 1 2 cbr 1000 ------- 2 1.0 2.0 0 0
+ 0.108 1 2 cbr 1000 ------- 2 1.0 2.0 1 1
- 0.108 1 2 cbr 1000 ------- 2 1.0 2.0 1 1
r 0.1108 1 2 cbr 1000 ------- 2 1.0 2.0 0 0
+ 0.116 1 2 cbr 1000 ------- 2 1.0 2.0 2 2
- 0.116 1 2 cbr 1000 ------- 2 1.0 2.0 2 2
r 0.1188 1 2 cbr 1000 ------- 2 1.0 2.0 1 1
+ 0.124 1 2 cbr 1000 ------- 2 1.0 2.0 3 3
- 0.124 1 2 cbr 1000 ------- 2 1.0 2.0 3 3
r 0.1268 1 2 cbr 1000 ------- 2 1.0 2.0 2 2
+ 0.132 1 2 cbr 1000 ------- 2 1.0 2.0 4 4
- 0.132 1 2 cbr 1000 ------- 2 1.0 2.0 4 4
r 0.1348 1 2 cbr 1000 ------- 2 1.0 2.0 3 3
+ 0.14 1 2 cbr 1000 ------- 2 1.0 2.0 5 5
- 0.14 1 2 cbr 1000 ------- 2 1.0 2.0 5 5
r 0.1428 1 2 cbr 1000 ------- 2 1.0 2.0 4 4
+ 0.148 1 2 cbr 1000 ------- 2 1.0 2.0 6 6
- 0.148 1 2 cbr 1000 ------- 2 1.0 2.0 6 6
r 0.1508 1 2 cbr 1000 ------- 2 1.0 2.0 5 5
+ 0.156 1 2 cbr 1000 ------- 2 1.0 2.0 7 7
- 0.156 1 2 cbr 1000 ------- 2 1.0 2.0 7 7
r 0.1588 1 2 cbr 1000 ------- 2 1.0 2.0 6 6
+ 0.164 1 2 cbr 1000 ------- 2 1.0 2.0 8 8
- 0.164 1 2 cbr 1000 ------- 2 1.0 2.0 8 8
r 0.1668 1 2 cbr 1000 ------- 2 1.0 2.0 7 7
+ 0.172 1 2 cbr 1000 ------- 2 1.0 2.0 9 9
- 0.172 1 2 cbr 1000 ------- 2 1.0 2.0 9 9
r 0.1748 1 2 cbr 1000 ------- 2 1.0 2.0 8 8
+ 0.18 1 2 cbr 1000 ------- 2 1.0 2.0 10 10
- 0.18 1 2 cbr 1000 ------- 2 1.0 2.0 10 10
r 0.1828 1 2 cbr 1000 ------- 2 1.0 2.0 9 9
+ 0.188 1 2 cbr 1000 ------- 2 1.0 2.0 11 11
- 0.188 1 2 cbr 1000 ------- 2 1.0 2.0 11 11
r 0.1908 1 2 cbr 1000 ------- 2 1.0 2.0 10 10
+ 0.196 1 2 cbr 1000 ------- 2 1.0 2.0 12 12
- 0.196 1 2 cbr 1000 ------- 2 1.0 2.0 12 12
r 0.1988 1 2 cbr 1000 ------- 2 1.0 2.0 11 11
+ 0.204 1 2 cbr 1000 ------- 2 1.0 2.0 13 13
- 0.204 1 2 cbr 1000 ------- 2 1.0 2.0 13 13
r 0.2068 1 2 cbr 1000 ------- 2 1.0 2.0 12 12
+ 0.212 1 2 cbr 1000 ------- 2 1.0 2.0 14 14
- 0.212 1 2 cbr 1000 ------- 2 1.0 2.0 14 14
r 0.2148 1 2 cbr 1000 ------- 2 1.0 2.0 13 13
+ 0.22 1 2 cbr 1000 ------- 2 1.0 2.0 15 15
- 0.22 1 2 cbr 1000 ------- 2 1.0 2.0 15 15
r 0.2228 1 2 cbr 1000 ------- 2 1.0 2.0 14 14
+ 0.228 1 2 cbr 1000 ------- 2 1.0 2.0 16 16
- 0.228 1 2 cbr 1000 ------- 2 1.0 2.0 16 16
r 0.2308 1 2 cbr 1000 ------- 2 1.0 2.0 15 15
+ 0.236 1 2 cbr 1000 ------- 2 1.0 2.0 17 17
- 0.236 1 2 cbr 1000 ------- 2 1.0 2.0 17 17
r 0.2388 1 2 cbr 1000 ------- 2 1.0 2.0 16 16
+ 0.244 1 2 cbr 1000 ------- 2 1.0 2.0 18 18
- 0.244 1 2 cbr 1000 ------- 2 1.0 2.0 18 18
r 0.2468 1 2 cbr 1000 ------- 2 1.0 2.0 17 17
+ 0.252 1 2 cbr 1000 ------- 2 1.0 2.0 19 19
- 0.252 1 2 cbr 1000 ------- 2 1.0 2.0 19 19
r 0.2548 1 2 cbr 1000 ------- 2 1.0 2.0 18 18
+ 0.26 1 2 cbr 1000 ------- 2 1.0 2.0 20 20
- 0.26 1 2 cbr 1000 ------- 2 1.0 2.0 20 20
r 0.2628 1 2 cbr 1000 ------- 2 1.0 2.0 19 19
+ 0.268 1 2 cbr 1000 ------- 2 1.0 2.0 21 21
- 0.268 1 2 cbr 1000 ------- 2 1.0 2.0 21 21
r 0.2708 1 2 cbr 1000 ------- 2 1.0 2.0 20 20
+ 0.276 1 2 cbr 1000 ------- 2 1.0 2.0 22 22
- 0.276 1 2 cbr 1000 ------- 2 1.0 2.0 22 22
r 0.2788 1 2 cbr 1000 ------- 2 1.0 2.0 21 21
+ 0.284 1 2 cbr 1000 ------- 2 1.0 2.0 23 23
- 0.284 1 2 cbr 1000 ------- 2 1.0 2.0 23 23
r 0.2868 1 2 cbr 1000 ------- 2 1.0 2.0 22 22
+ 0.292 1 2 cbr 1000 ------- 2 1.0 2.0 24 24
- 0.292 1 2 cbr 1000 ------- 2 1.0 2.0 24 24
r 0.2948 1 2 cbr 1000 ------- 2 1.0 2.0 23 23
+ 0.3 1 2 cbr 1000 ------- 2 1.0 2.0 25 25
- 0.3 1 2 cbr 1000 ------- 2 1.0 2.0 25 25
r 0.3028 1 2 cbr 1000 ------- 2 1.0 2.0 24 24
+ 0.308 1 2 cbr 1000 ------- 2 1.0 2.0 26 26
- 0.308 1 2 cbr 1000 ------- 2 1.0 2.0 26 26
r 0.3108 1 2 cbr 1000 ------- 2 1.0 2.0 25 25
+ 0.316 1 2 cbr 1000 ------- 2 1.0 2.0 27 27
- 0.316 1 2 cbr 1000 ------- 2 1.0 2.0 27 27
r 0.3188 1 2 cbr 1000 ------- 2 1.0 2.0 26 26
+ 0.324 1 2 cbr 1000 ------- 2 1.0 2.0 28 28
- 0.324 1 2 cbr 1000 ------- 2 1.0 2.0 28 28
r 0.3268 1 2 cbr 1000 ------- 2 1.0 2.0 27 27
+ 0.332 1 2 cbr 1000 ------- 2 1.0 2.0 29 29
- 0.332 1 2 cbr 1000 ------- 2 1.0 2.0 29 29
r 0.3348 1 2 cbr 1000 ------- 2 1.0 2.0 28 28
+ 0.34 1 2 cbr 1000 ------- 2 1.0 2.0 30 30
- 0.34 1 2 cbr 1000 ------- 2 1.0 2.0 30 30
r 0.3428 1 2 cbr 1000 ------- 2 1.0 2.0 29 29
+ 0.348 1 2 cbr 1000 ------- 2 1.0 2.0 31 31
- 0.348 1 2 cbr 1000 ------- 2 1.0 2.0 31 31
r 0.3508 1 2 cbr 1000 ------- 2 1.0 2.0 30 30
+ 0.356 1 2 cbr 1000 ------- 2 1.0 2.0 32 32
- 0.356 1 2 cbr 1000 ------- 2 1.0 2.0 32 32
r 0.3588 1 2 cbr 1000 ------- 2 1.0 2.0 31 31
+ 0.364 1 2 cbr 1000 ------- 2 1.0 2.0 33 33
- 0.364 1 2 cbr 1000 ------- 2 1.0 2.0 33 33
r 0.3668 1 2 cbr 1000 ------- 2 1.0 2.0 32 32
+ 0.372 1 2 cbr 1000 ------- 2 1.0 2.0 34 34
- 0.372 1 2 cbr 1000 ------- 2 1.0 2.0 34 34
r 0.3748 1 2 cbr 1000 ------- 2 1.0 2.0 33 33
+ 0.38 1 2 cbr 1000 ------- 2 1.0 2.0 35 35
- 0.38 1 2 cbr 1000 ------- 2 1.0 2.0 35 35
r 0.3828 1 2 cbr 1000 ------- 2 1.0 2.0 34 34
+ 0.388 1 2 cbr 1000 ------- 2 1.0 2.0 36 36
- 0.388 1 2 cbr 1000 ------- 2 1.0 2.0 36 36
r 0.3908 1 2 cbr 1000 ------- 2 1.0 2.0 35 35
+ 0.396 1 2 cbr 1000 ------- 2 1.0 2.0 37 37
- 0.396 1 2 cbr 1000 ------- 2 1.0 2.0 37 37
r 0.3988 1 2 cbr 1000 ------- 2 1.0 2.0 36 36
+ 0.404 1 2 cbr 1000 ------- 2 1.0 2.0 38 38
- 0.404 1 2 cbr 1000 ------- 2 1.0 2.0 38 38
r 0.4068 1 2 cbr 1000 ------- 2 1.0 2.0 37 37
+ 0.412 1 2 cbr 1000 ------- 2 1.0 2.0 39 39
- 0.412 1 2 cbr 1000 ------- 2 1.0 2.0 39 39
r 0.4148 1 2 cbr 1000 ------- 2 1.0 2.0 38 38
+ 0.42 1 2 cbr 1000 ------- 2 1.0 2.0 40 40
- 0.42 1 2 cbr 1000 ------- 2 1.0 2.0 40 40
r 0.4228 1 2 cbr 1000 ------- 2 1.0 2.0 39 39
+ 0.428 1 2 cbr 1000 ------- 2 1.0 2.0 41 41
- 0.428 1 2 cbr 1000 ------- 2 1.0 2.0 41 41
r 0.4308 1 2 cbr 1000 ------- 2 1.0 2.0 40 40
+ 0.436 1 2 cbr 1000 ------- 2 1.0 2.0 42 42
- 0.436 1 2 cbr 1000 ------- 2 1.0 2.0 42 42
r 0.4388 1 2 cbr 1000 ------- 2 1.0 2.0 41 41
+ 0.444 1 2 cbr 1000 ------- 2 1.0 2.0 43 43
- 0.444 1 2 cbr 1000 ------- 2 1.0 2.0 43 43
r 0.4468 1 2 cbr 1000 ------- 2 1.0 2.0 42 42
+ 0.452 1 2 cbr 1000 ------- 2 1.0 2.0 44 44
- 0.452 1 2 cbr 1000 ------- 2 1.0 2.0 44 44
r 0.4548 1 2 cbr 1000 ------- 2 1.0 2.0 43 43
+ 0.46 1 2 cbr 1000 ------- 2 1.0 2.0 45 45
- 0.46 1 2 cbr 1000 ------- 2 1.0 2.0 45 45
r 0.4628 1 2 cbr 1000 ------- 2 1.0 2.0 44 44
+ 0.468 1 2 cbr 1000 ------- 2 1.0 2.0 46 46
- 0.468 1 2 cbr 1000 ------- 2 1.0 2.0 46 46
r 0.4708 1 2 cbr 1000 ------- 2 1.0 2.0 45 45
+ 0.476 1 2 cbr 1000 ------- 2 1.0 2.0 47 47
- 0.476 1 2 cbr 1000 ------- 2 1.0 2.0 47 47
r 0.4788 1 2 cbr 1000 ------- 2 1.0 2.0 46 46
+ 0.484 1 2 cbr 1000 ------- 2 1.0 2.0 48 48
- 0.484 1 2 cbr 1000 ------- 2 1.0 2.0 48 48
r 0.4868 1 2 cbr 1000 ------- 2 1.0 2.0 47 47
+ 0.492 1 2 cbr 1000 ------- 2 1.0 2.0 49 49
- 0.492 1 2 cbr 1000 ------- 2 1.0 2.0 49 49
r 0.4948 1 2 cbr 1000 ------- 2 1.0 2.0 48 48
+ 0.5 1 2 cbr 1000 ------- 2 1.0 2.0 50 50
- 0.5 1 2 cbr 1000 ------- 2 1.0 2.0 50 50
r 0.5028 1 2 cbr 1000 ------- 2 1.0 2.0 49 49
+ 0.508 1 2 cbr 1000 ------- 2 1.0 2.0 51 51
- 0.508 1 2 cbr 1000 ------- 2 1.0 2.0 51 51
r 0.5108 1 2 cbr 1000 ------- 2 1.0 2.0 50 50
+ 0.516 1 2 cbr 1000 ------- 2 1.0 2.0 52 52
- 0.516 1 2 cbr 1000 ------- 2 1.0 2.0 52 52
r 0.5188 1 2 cbr 1000 ------- 2 1.0 2.0 51 51
+ 0.524 1 2 cbr 1000 ------- 2 1.0 2.0 53 53
- 0.524 1 2 cbr 1000 ------- 2 1.0 2.0 53 53
r 0.5268 1 2 cbr 1000 ------- 2 1.0 2.0 52 52
+ 0.532 1 2 cbr 1000 ------- 2 1.0 2.0 54 54
- 0.532 1 2 cbr 1000 ------- 2 1.0 2.0 54 54
r 0.5348 1 2 cbr 1000 ------- 2 1.0 2.0 53 53
+ 0.54 1 2 cbr 1000 ------- 2 1.0 2.0 55 55
- 0.54 1 2 cbr 1000 ------- 2 1.0 2.0 55 55
r 0.5428 1 2 cbr 1000 ------- 2 1.0 2.0 54 54
+ 0.548 1 2 cbr 1000 ------- 2 1.0 2.0 56 56
- 0.548 1 2 cbr 1000 ------- 2 1.0 2.0 56 56
r 0.5508 1 2 cbr 1000 ------- 2 1.0 2.0 55 55
+ 0.556 1 2 cbr 1000 ------- 2 1.0 2.0 57 57
- 0.556 1 2 cbr 1000 ------- 2 1.0 2.0 57 57
r 0.5588 1 2 cbr 1000 ------- 2 1.0 2.0 56 56
+ 0.564 1 2 cbr 1000 ------- 2 1.0 2.0 58 58
- 0.564 1 2 cbr 1000 ------- 2 1.0 2.0 58 58
r 0.5668 1 2 cbr 1000 ------- 2 1.0 2.0 57 57
+ 0.572 1 2 cbr 1000 ------- 2 1.0 2.0 59 59
- 0.572 1 2 cbr 1000 ------- 2 1.0 2.0 59 59
r 0.5748 1 2 cbr 1000 ------- 2 1.0 2.0 58 58
+ 0.58 1 2 cbr 1000 ------- 2 1.0 2.0 60 60
- 0.58 1 2 cbr 1000 ------- 2 1.0 2.0 60 60
r 0.5828 1 2 cbr 1000 ------- 2 1.0 2.0 59 59
+ 0.588 1 2 cbr 1000 ------- 2 1.0 2.0 61 61
- 0.588 1 2 cbr 1000 ------- 2 1.0 2.0 61 61
r 0.5908 1 2 cbr 1000 ------- 2 1.0 2.0 60 60
+ 0.596 1 2 cbr 1000 ------- 2 1.0 2.0 62 62
- 0.596 1 2 cbr 1000 ------- 2 1.0 2.0 62 62
r 0.5988 1 2 cbr 1000 ------- 2 1.0 2.0 61 61
+ 0.604 1 2 cbr 1000 ------- 2 1.0 2.0 63 63
- 0.604 1 2 cbr 1000 ------- 2 1.0 2.0 63 63
r 0.6068 1 2 cbr 1000 ------- 2 1.0 2.0 62 62
+ 0.612 1 2 cbr 1000 ------- 2 1.0 2.0 64 64
- 0.612 1 2 cbr 1000 ------- 2 1.0 2.0 64 64
r 0.6148 1 2 cbr 1000 ------- 2 1.0 2.0 63 63
+ 0.62 1 2 cbr 1000 ------- 2 1.0 2.0 65 65
- 0.62 1 2 cbr 1000 ------- 2 1.0 2.0 65 65
r 0.6228 1 2 cbr 1000 ------- 2 1.0 2.0 64 64
+ 0.628 1 2 cbr 1000 ------- 2 1.0 2.0 66 66
- 0.628 1 2 cbr 1000 ------- 2 1.0 2.0 66 66
r 0.6308 1 2 cbr 1000 ------- 2 1.0 2.0 65 65
+ 0.636 1 2 cbr 1000 ------- 2 1.0 2.0 67 67
- 0.636 1 2 cbr 1000 ------- 2 1.0 2.0 67 67
r 0.6388 1 2 cbr 1000 ------- 2 1.0 2.0 66 66
+ 0.644 1 2 cbr 1000 ------- 2 1.0 2.0 68 68
- 0.644 1 2 cbr 1000 ------- 2 1.0 2.0 68 68
r 0.6468 1 2 cbr 1000 ------- 2 1.0 2.0 67 67
+ 0.652 1 2 cbr 1000 ------- 2 1.0 2.0 69 69
- 0.652 1 2 cbr 1000 ------- 2 1.0 2.0 69 69
r 0.6548 1 2 cbr 1000 ------- 2 1.0 2.0 68 68
+ 0.66 1 2 cbr 1000 ------- 2 1.0 2.0 70 70
- 0.66 1 2 cbr 1000 ------- 2 1.0 2.0 70 70
r 0.6628 1 2 cbr 1000 ------- 2 1.0 2.0 69 69
+ 0.668 1 2 cbr 1000 ------- 2 1.0 2.0 71 71
- 0.668 1 2 cbr 1000 ------- 2 1.0 2.0 71 71
r 0.6708 1 2 cbr 1000 ------- 2 1.0 2.0 70 70
+ 0.676 1 2 cbr 1000 ------- 2 1.0 2.0 72 72
- 0.676 1 2 cbr 1000 ------- 2 1.0 2.0 72 72
r 0.6788 1 2 cbr 1000 ------- 2 1.0 2.0 71 71
+ 0.684 1 2 cbr 1000 ------- 2 1.0 2.0 73 73
- 0.684 1 2 cbr 1000 ------- 2 1.0 2.0 73 73
r 0.6868 1 2 cbr 1000 ------- 2 1.0 2.0 72 72
+ 0.692 1 2 cbr 1000 ------- 2 1.0 2.0 74 74
- 0.692 1 2 cbr 1000 ------- 2 1.0 2.0 74 74
r 0.6948 1 2 cbr 1000 ------- 2 1.0 2.0 73 73
+ 0.7 1 2 cbr 1000 ------- 2 1.0 2.0 75 75
- 0.7 1 2 cbr 1000 ------- 2 1.0 2.0 75 75
r 0.7028 1 2 cbr 1000 ------- 2 1.0 2.0 74 74
+ 0.708 1 2 cbr 1000 ------- 2 1.0 2.0 76 76
- 0.708 1 2 cbr 1000 ------- 2 1.0 2.0 76 76
r 0.7108 1 2 cbr 1000 ------- 2 1.0 2.0 75 75
+ 0.716 1 2 cbr 1000 ------- 2 1.0 2.0 77 77
- 0.716 1 2 cbr 1000 ------- 2 1.0 2.0 77 77
r 0.7188 1 2 cbr 1000 ------- 2 1.0 2.0 76 76
+ 0.724 1 2 cbr 1000 ------- 2 1.0 2.0 78 78
- 0.724 1 2 cbr 1000 ------- 2 1.0 2.0 78 78
r 0.7268 1 2 cbr 1000 ------- 2 1.0 2.0 77 77
+ 0.732 1 2 cbr 1000 ------- 2 1.0 2.0 79 79
- 0.732 1 2 cbr 1000 ------- 2 1.0 2.0 79 79
r 0.7348 1 2 cbr 1000 ------- 2 1.0 2.0 78 78
+ 0.74 1 2 cbr 1000 ------- 2 1.0 2.0 80 80
- 0.74 1 2 cbr 1000 ------- 2 1.0 2.0 80 80
r 0.7428 1 2 cbr 1000 ------- 2 1.0 2.0 79 79
+ 0.748 1 2 cbr 1000 ------- 2 1.0 2.0 81 81
- 0.748 1 2 cbr 1000 ------- 2 1.0 2.0 81 81
r 0.7508 1 2 cbr 1000 ------- 2 1.0 2.0 80 80
+ 0.756 1 2 cbr 1000 ------- 2 1.0 2.0 82 82
- 0.756 1 2 cbr 1000 ------- 2 1.0 2.0 82 82
r 0.7588 1 2 cbr 1000 ------- 2 1.0 2.0 81 81
+ 0.764 1 2 cbr 1000 ------- 2 1.0 2.0 83 83
- 0.764 1 2 cbr 1000 ------- 2 1.0 2.0 83 83
r 0.7668 1 2 cbr 1000 ------- 2 1.0 2.0 82 82
+ 0.772 1 2 cbr 1000 ------- 2 1.0 2.0 84 84
- 0.772 1 2 cbr 1000 ------- 2 1.0 2.0 84 84
r 0.7748 1 2 cbr 1000 ------- 2 1.0 2.0 83 83
+ 0.78 1 2 cbr 1000 ------- 2 1.0 2.0 85 85
- 0.78 1 2 cbr 1000 ------- 2 1.0 2.0 85 85
r 0.7828 1 2 cbr 1000 ------- 2 1.0 2.0 84 84
+ 0.788 1 2 cbr 1000 ------- 2 1.0 2.0 86 86
- 0.788 1 2 cbr 1000 ------- 2 1.0 2.0 86 86
r 0.7908 1 2 cbr 1000 ------- 2 1.0 2.0 85 85
+ 0.796 1 2 cbr 1000 ------- 2 1.0 2.0 87 87
- 0.796 1 2 cbr 1000 ------- 2 1.0 2.0 87 87
r 0.7988 1 2 cbr 1000 ------- 2 1.0 2.0 86 86
+ 0.804 1 2 cbr 1000 ------- 2 1.0 2.0 88 88
- 0.804 1 2 cbr 1000 ------- 2 1.0 2.0 88 88
r 0.8068 1 2 cbr 1000 ------- 2 1.0 2.0 87 87
+ 0.812 1 2 cbr 1000 ------- 2 1.0 2.0 89 89
- 0.812 1 2 cbr 1000 ------- 2 1.0 2.0 89 89
r 0.8148 1 2 cbr 1000 ------- 2 1.0 2.0 88 88
+ 0.82 1 2 cbr 1000 ------- 2 1.0 2.0 90 90
- 0.82 1 2 cbr 1000 ------- 2 1.0 2.0 90 90
r 0.8228 1 2 cbr 1000 ------- 2 1.0 2.0 89 89
+ 0.828 1 2 cbr 1000 ------- 2 1.0 2.0 91 91
- 0.828 1 2 cbr 1000 ------- 2 1.0 2.0 91 91
r 0.8308 1 2 cbr 1000 ------- 2 1.0 2.0 90 90
+ 0.836 1 2 cbr 1000 ------- 2 1.0 2.0 92 92
- 0.836 1 2 cbr 1000 ------- 2 1.0 2.0 92 92
r 0.8388 1 2 cbr 1000 ------- 2 1.0 2.0 91 91
+ 0.844 1 2 cbr 1000 ------- 2 1.0 2.0 93 93
- 0.844 1 2 cbr 1000 ------- 2 1.0 2.0 93 93
r 0.8468 1 2 cbr 1000 ------- 2 1.0 2.0 92 92
+ 0.852 1 2 cbr 1000 ------- 2 1.0 2.0 94 94
- 0.852 1 2 cbr 1000 ------- 2 1.0 2.0 94 94
r 0.8548 1 2 cbr 1000 ------- 2 1.0 2.0 93 93
+ 0.86 1 2 cbr 1000 ------- 2 1.0 2.0 95 95
- 0.86 1 2 cbr 1000 ------- 2 1.0 2.0 95 95
r 0.8628 1 2 cbr 1000 ------- 2 1.0 2.0 94 94
+ 0.868 1 2 cbr 1000 ------- 2 1.0 2.0 96 96
- 0.868 1 2 cbr 1000 ------- 2 1.0 2.0 96 96
r 0.8708 1 2 cbr 1000 ------- 2 1.0 2.0 95 95
+ 0.876 1 2 cbr 1000 ------- 2 1.0 2.0 97 97
- 0.876 1 2 cbr 1000 ------- 2 1.0 2.0 97 97
r 0.8788 1 2 cbr 1000 ------- 2 1.0 2.0 96 96
+ 0.884 1 2 cbr 1000 ------- 2 1.0 2.0 98 98
- 0.884 1 2 cbr 1000 ------- 2 1.0 2.0 98 98
r 0.8868 1 2 cbr 1000 ------- 2 1.0 2.0 97 97
+ 0.892 1 2 cbr 1000 ------- 2 1.0 2.0 99 99
- 0.892 1 2 cbr 1000 ------- 2 1.0 2.0 99 99
r 0.8948 1 2 cbr 1000 ------- 2 1.0 2.0 98 98
+ 0.9 1 2 cbr 1000 ------- 2 1.0 2.0 100 100
- 0.9 1 2 cbr 1000 ------- 2 1.0 2.0 100 100
r 0.9028 1 2 cbr 1000 ------- 2 1.0 2.0 99 99
+ 0.908 1 2 cbr 1000 ------- 2 1.0 2.0 101 101
- 0.908 1 2 cbr 1000 ------- 2 1.0 2.0 101 101
r 0.9108 1 2 cbr 1000 ------- 2 1.0 2.0 100 100
+ 0.916 1 2 cbr 1000 ------- 2 1.0 2.0 102 102
- 0.916 1 2 cbr 1000 ------- 2 1.0 2.0 102 102
r 0.9188 1 2 cbr 1000 ------- 2 1.0 2.0 101 101
+ 0.924 1 2 cbr 1000 ------- 2 1.0 2.0 103 103
- 0.924 1 2 cbr 1000 ------- 2 1.0 2.0 103 103
r 0.9268 1 2 cbr 1000 ------- 2 1.0 2.0 102 102
+ 0.932 1 2 cbr 1000 ------- 2 1.0 2.0 104 104
- 0.932 1 2 cbr 1000 ------- 2 1.0 2.0 104 104
r 0.9348 1 2 cbr 1000 ------- 2 1.0 2.0 103 103
+ 0.94 1 2 cbr 1000 ------- 2 1.0 2.0 105 105
- 0.94 1 2 cbr 1000 ------- 2 1.0 2.0 105 105
r 0.9428 1 2 cbr 1000 ------- 2 1.0 2.0 104 104
+ 0.948 1 2 cbr 1000 ------- 2 1.0 2.0 106 106
- 0.948 1 2 cbr 1000 ------- 2 1.0 2.0 106 106
r 0.9508 1 2 cbr 1000 ------- 2 1.0 2.0 105 105
+ 0.956 1 2 cbr 1000 ------- 2 1.0 2.0 107 107
- 0.956 1 2 cbr 1000 ------- 2 1.0 2.0 107 107
r 0.9588 1 2 cbr 1000 ------- 2 1.0 2.0 106 106
+ 0.964 1 2 cbr 1000 ------- 2 1.0 2.0 108 108
- 0.964 1 2 cbr 1000 ------- 2 1.0 2.0 108 108
r 0.9668 1 2 cbr 1000 ------- 2 1.0 2.0 107 107
+ 0.972 1 2 cbr 1000 ------- 2 1.0 2.0 109 109
- 0.972 1 2 cbr 1000 ------- 2 1.0 2.0 109 109
r 0.9748 1 2 cbr 1000 ------- 2 1.0 2.0 108 108
+ 0.98 1 2 cbr 1000 ------- 2 1.0 2.0 110 110
- 0.98 1 2 cbr 1000 ------- 2 1.0 2.0 110 110
r 0.9828 1 2 cbr 1000 ------- 2 1.0 2.0 109 109
+ 0.988 1 2 cbr 1000 ------- 2 1.0 2.0 111 111
- 0.988 1 2 cbr 1000 ------- 2 1.0 2.0 111 111
r 0.9908 1 2 cbr 1000 ------- 2 1.0 2.0 110 110
+ 0.996 1 2 cbr 1000 ------- 2 1.0 2.0 112 112
- 0.996 1 2 cbr 1000 ------- 2 1.0 2.0 112 112
r 0.9988 1 2 cbr 1000 ------- 2 1.0 2.0 111 111
+ 1 0 1 tcp 1000 ------- 1 0.0 3.0 0 113
- 1 0 1 tcp 1000 ------- 1 0.0 3.0 0 113
+ 1.004 1 2 cbr 1000 ------- 2 1.0 2.0 113 114
- 1.004 1 2 cbr 1000 ------- 2 1.0 2.0 113 114
r 1.0068 1 2 cbr 1000 ------- 2 1.0 2.0 112 112
r 1.0108 0 1 tcp 1000 ------- 1 0.0 3.0 0 113
+ 1.0108 1 2 tcp 1000 ------- 1 0.0 3.0 0 113
- 1.0108 1 2 tcp 1000 ------- 1 0.0 3.0 0 113
+ 1.012 1 2 cbr 1000 ------- 2 1.0 2.0 114 115
- 1.012 1 2 cbr 1000 ------- 2 1.0 2.0 114 115
r 1.0148 1 2 cbr 1000 ------- 2 1.0 2.0 113 114
+ 1.02 1 2 cbr 1000 ------- 2 1.0 2.0 115 116
- 1.02 1 2 cbr 1000 ------- 2 1.0 2.0 115 116
r 1.0216 1 2 tcp 1000 ------- 1 0.0 3.0 0 113
+ 1.0216 2 3 tcp 1000 ------- 1 0.0 3.0 0 113
- 1.0216 2 3 tcp 1000 ------- 1 0.0 3.0 0 113
r 1.0228 1 2 cbr 1000 ------- 2 1.0 2.0 114 115
+ 1.028 1 2 cbr 1000 ------- 2 1.0 2.0 116 117
- 1.028 1 2 cbr 1000 ------- 2 1.0 2.0 116 117
r 1.0308 1 2 cbr 1000 ------- 2 1.0 2.0 115 116
r 1.0324 2 3 tcp 1000 ------- 1 0.0 3.0 0 113
+ 1.0324 3 2 ack 40 ------- 1 3.0 0.0 0 118
- 1.0324 3 2 ack 40 ------- 1 3.0 0.0 0 118
+ 1.036 1 2 cbr 1000 ------- 2 1.0 2.0 117 119
- 1.036 1 2 cbr 1000 ------- 2 1.0 2.0 117 119
r 1.0388 1 2 cbr 1000 ------- 2 1.0 2.0 116 117
r 1.042432 3 2 ack 40 ------- 1 3.0 0.0 0 118
+ 1.042432 2 1 ack 40 ------- 1 3.0 0.0 0 118
- 1.042432 2 1 ack 40 ------- 1 3.0 0.0 0 118
+ 1.044 1 2 cbr 1000 ------- 2 1.0 2.0 118 120
- 1.044 1 2 cbr 1000 ------- 2 1.0 2.0 118 120
r 1.0468 1 2 cbr 1000 ------- 2 1.0 2.0 117 119
+ 1.052 1 2 cbr 1000 ------- 2 1.0 2.0 119 121
- 1.052 1 2 cbr 1000 ------- 2 1.0 2.0 119 121
r 1.052464 2 1 ack 40 ------- 1 3.0 0.0 0 118
+ 1.052464 1 0 ack 40 ------- 1 3.0 0.0 0 118
- 1.052464 1 0 ack 40 ------- 1 3.0 0.0 0 118
r 1.0548 1 2 cbr 1000 ------- 2 1.0 2.0 118 120
+ 1.06 1 2 cbr 1000 ------- 2 1.0 2.0 120 122
- 1.06 1 2 cbr 1000 ------- 2 1.0 2.0 120 122
r 1.062496 1 0 ack 40 ------- 1 3.0 0.0 0 118
+ 1.062496 0 1 tcp 1000 ------- 1 0.0 3.0 1 123
- 1.062496 0 1 tcp 1000 ------- 1 0.0 3.0 1 123
r 1.0628 1 2 cbr 1000 ------- 2 1.0 2.0 119 121
+ 1.068 1 2 cbr 1000 ------- 2 1.0 2.0 121 124
- 1.068 1 2 cbr 1000 ------- 2 1.0 2.0 121 124
r 1.0708 1 2 cbr 1000 ------- 2 1.0 2.0 120 122
r 1.073296 0 1 tcp 1000 ------- 1 0.0 3.0 1 123
+ 1.073296 1 2 tcp 1000 ------- 1 0.0 3.0 1 123
- 1.073296 1 2 tcp 1000 ------- 1 0.0 3.0 1 123
+ 1.076 1 2 cbr 1000 ------- 2 1.0 2.0 122 125
- 1.076 1 2 cbr 1000 ------- 2 1.0 2.0 122 125
r 1.0788 1 2 cbr 1000 ------- 2 1.0 2.0 121 124
+ 1.084 1 2 cbr 1000 ------- 2 1.0 2.0 123 126
- 1.084 1 2 cbr 1000 ------- 2 1.0 2.0 123 126
r 1.084096 1 2 tcp 1000 ------- 1 0.0 3.0 1 123
+ 1.084096 2 3 tcp 1000 ------- 1 0.0 3.0 1 123
- 1.084096 2 3 tcp 1000 ------- 1 0.0 3.0 1 123
r 1.0868 1 2 cbr 1000 ------- 2 1.0 2.0 122 125
+ 1.092 1 2 cbr 1000 ------- 2 1.0 2.0 124 127
- 1.092 1 2 cbr 1000 ------- 2 1.0 2.0 124 127
r 1.0948 1 2 cbr 1000 ------- 2 1.0 2.0 123 126
r 1.094896 2 3 tcp 1000 ------- 1 0.0 3.0 1 123
+ 1.094896 3 2 ack 40 ------- 1 3.0 0.0 1 128
- 1.094896 3 2 ack 40 ------- 1 3.0 0.0 1 128
+ 1.1 1 2 cbr 1000 ------- 2 1.0 2.0 125 129
- 1.1 1 2 cbr 1000 ------- 2 1.0 2.0 125 129
r 1.1028 1 2 cbr 1000 ------- 2 1.0 2.0 124 127
r 1.104928 3 2 ack 40 ------- 1 3.0 0.0 1 128
+ 1.104928 2 1 ack 40 ------- 1 3.0 0.0 1 128
- 1.104928 2 1 ack 40 ------- 1 3.0 0.0 1 128
+ 1.108 1 2 cbr 1000 ------- 2 1.0 2.0 126 130
- 1.108 1 2 cbr 1000 ------- 2 1.0 2.0 126 130
r 1.1108 1 2 cbr 1000 ------- 2 1.0 2.0 125 129
r 1.11496 2 1 ack 40 ------- 1 3.0 0.0 1 128
+ 1.11496 1 0 ack 40 ------- 1 3.0 0.0 1 128
- 1.11496 1 0 ack 40 ------- 1 3.0 0.0 1 128
+ 1.116 1 2 cbr 1000 ------- 2 1.0 2.0 127 131
- 1.116 1 2 cbr 1000 ------- 2 1.0 2.0 127 131
r 1.1188 1 2 cbr 1000 ------- 2 1.0 2.0 126 130
+ 1.124 1 2 cbr 1000 ------- 2 1.0 2.0 128 132
- 1.124 1 2 cbr 1000 ------- 2 1.0 2.0 128 132
r 1.124992 1 0 ack 40 ------- 1 3.0 0.0 1 128
+ 1.124992 0 1 tcp 1000 ------- 1 0.0 3.0 2 133
- 1.124992 0 1 tcp 1000 ------- 1 0.0 3.0 2 133
+ 1.124992 0 1 tcp 1000 ------- 1 0.0 3.0 3 134
+ 1.124992 0 1 tcp 1000 ------- 1 0.0 3.0 4 135
- 1.125792 0 1 tcp 1000 ------- 1 0.0 3.0 3 134
- 1.126592 0 1 tcp 1000 ------- 1 0.0 3.0 4 135
r 1.1268 1 2 cbr 1000 ------- 2 1.0 2.0 127 131
+ 1.132 1 2 cbr 1000 ------- 2 1.0 2.0 129 136
- 1.132 1 2 cbr 1000 ------- 2 1.0 2.0 129 136
r 1.1348 1 2 cbr 1000 ------- 2 1.0 2.0 128 132
r 1.135792 0 1 tcp 1000 ------- 1 0.0 3.0 2 133
+ 1.135792 1 2 tcp 1000 ------- 1 0.0 3.0 2 133
- 1.135792 1 2 tcp 1000 ------- 1 0.0 3.0 2 133
r 1.136592 0 1 tcp 1000 ------- 1 0.0 3.0 3 134
+ 1.136592 1 2 tcp 1000 ------- 1 0.0 3.0 3 134
- 1.136592 1 2 tcp 1000 ------- 1 0.0 3.0 3 134
r 1.137392 0 1 tcp 1000 ------- 1 0.0 3.0 4 135
+ 1.137392 1 2 tcp 1000 ------- 1 0.0 3.0 4 135
- 1.137392 1 2 tcp 1000 ------- 1 0.0 3.0 4 135
+ 1.14 1 2 cbr 1000 ------- 2 1.0 2.0 130 137
- 1.14 1 2 cbr 1000 ------- 2 1.0 2.0 130 137
r 1.1428 1 2 cbr 1000 ------- 2 1.0 2.0 129 136
r 1.146592 1 2 tcp 1000 ------- 1 0.0 3.0 2 133
+ 1.146592 2 3 tcp 1000 ------- 1 0.0 3.0 2 133
- 1.146592 2 3 tcp 1000 ------- 1 0.0 3.0 2 133
r 1.147392 1 2 tcp 1000 ------- 1 0.0 3.0 3 134
+ 1.147392 2 3 tcp 1000 ------- 1 0.0 3.0 3 134
- 1.147392 2 3 tcp 1000 ------- 1 0.0 3.0 3 134
+ 1.148 1 2 cbr 1000 ------- 2 1.0 2.0 131 138
- 1.148 1 2 cbr 1000 ------- 2 1.0 2.0 131 138
r 1.148192 1 2 tcp 1000 ------- 1 0.0 3.0 4 135
+ 1.148192 2 3 tcp 1000 ------- 1 0.0 3.0 4 135
- 1.148192 2 3 tcp 1000 ------- 1 0.0 3.0 4 135
r 1.1508 1 2 cbr 1000 ------- 2 1.0 2.0 130 137
+ 1.156 1 2 cbr 1000 ------- 2 1.0 2.0 132 139
- 1.156 1 2 cbr 1000 ------- 2 1.0 2.0 132 139
r 1.157392 2 3 tcp 1000 ------- 1 0.0 3.0 2 133
+ 1.157392 3 2 ack 40 ------- 1 3.0 0.0 2 140
- 1.157392 3 2 ack 40 ------- 1 3.0 0.0 2 140
r 1.158192 2 3 tcp 1000 ------- 1 0.0 3.0 3 134
+ 1.158192 3 2 ack 40 ------- 1 3.0 0.0 3 141
- 1.158192 3 2 ack 40 ------- 1 3.0 0.0 3 141
r 1.1588 1 2 cbr 1000 ------- 2 1.0 2.0 131 138
r 1.158992 2 3 tcp 1000 ------- 1 0.0 3.0 4 135
+ 1.158992 3 2 ack 40 ------- 1 3.0 0.0 4 142
- 1.158992 3 2 ack 40 ------- 1 3.0 0.0 4 142
+ 1.164 1 2 cbr 1000 ------- 2 1.0 2.0 133 143
- 1.164 1 2 cbr 1000 ------- 2 1.0 2.0 133 143
r 1.1668 1 2 cbr 1000 ------- 2 1.0 2.0 132 139
r 1.167424 3 2 ack 40 ------- 1 3.0 0.0 2 140
+ 1.167424 2 1 ack 40 ------- 1 3.0 0.0 2 140
- 1.167424 2 1 ack 40 ------- 1 3.0 0.0 2 140
r 1.168224 3 2 ack 40 ------- 1 3.0 0.0 3 141
+ 1.168224 2 1 ack 40 ------- 1 3.0 0.0 3 141
- 1.168224 2 1 ack 40 ------- 1 3.0 0.0 3 141
r 1.169024 3 2 ack 40 ------- 1 3.0 0.0 4 142
+ 1.169024 2 1 ack 40 ------- 1 3.0 0.0 4 142
- 1.169024 2 1 ack 40 ------- 1 3.0 0.0 4 142
+ 1.172 1 2 cbr 1000 ------- 2 1.0 2.0 134 144
- 1.172 1 2 cbr 1000 ------- 2 1.0 2.0 134 144
r 1.1748 1 2 cbr 1000 ------- 2 1.0 2.0 133 143
r 1.177456 2 1 ack 40 ------- 1 3.0 0.0 2 140
+ 1.177456 1 0 ack 40 ------- 1 3.0 0.0 2 140
- 1.177456 1 0 ack 40 ------- 1 3.0 0.0 2 140
r 1.178256 2 1 ack 40 ------- 1 3.0 0.0 3 141
+ 1.178256 1 0 ack 40 ------- 1 3.0 0.0 3 141
- 1.178256 1 0 ack 40 ------- 1 3.0 0.0 3 141
r 1.179056 2 1 ack 40 ------- 1 3.0 0.0 4 142
+ 1.179056 1 0 ack 40 ------- 1 3.0 0.0 4 142
- 1.179056 1 0 ack 40 ------- 1 3.0 0.0 4 142
+ 1.18 1 2 cbr 1000 ------- 2 1.0 2.0 135 145
- 1.18 1 2 cbr 1000 ------- 2 1.0 2.0 135 145
r 1.1828 1 2 cbr 1000 ------- 2 1.0 2.0 134 144
r 1.187488 1 0 ack 40 ------- 1 3.0 0.0 2 140
+ 1.187488 0 1 tcp 1000 ------- 1 0.0 3.0 5 146
- 1.187488 0 1 tcp 1000 ------- 1 0.0 3.0 5 146
+ 1.188 1 2 cbr 1000 ------- 2 1.0 2.0 136 147
- 1.188 1 2 cbr 1000 ------- 2 1.0 2.0 136 147
r 1.188288 1 0 ack 40 ------- 1 3.0 0.0 3 141
+ 1.188288 0 1 tcp 1000 ------- 1 0.0 3.0 6 148
- 1.188288 0 1 tcp 1000 ------- 1 0.0 3.0 6 148
r 1.189088 1 0 ack 40 ------- 1 3.0 0.0 4 142
+ 1.189088 0 1 tcp 1000 ------- 1 0.0 3.0 7 149
- 1.189088 0 1 tcp 1000 ------- 1 0.0 3.0 7 149
r 1.1908 1 2 cbr 1000 ------- 2 1.0 2.0 135 145
+ 1.196 1 2 cbr 1000 ------- 2 1.0 2.0 137 150
- 1.196 1 2 cbr 1000 ------- 2 1.0 2.0 137 150
r 1.198288 0 1 tcp 1000 ------- 1 0.0 3.0 5 146
+ 1.198288 1 2 tcp 1000 ------- 1 0.0 3.0 5 146
- 1.198288 1 2 tcp 1000 ------- 1 0.0 3.0 5 146
r 1.1988 1 2 cbr 1000 ------- 2 1.0 2.0 136 147
r 1.199088 0 1 tcp 1000 ------- 1 0.0 3.0 6 148
+ 1.199088 1 2 tcp 1000 ------- 1 0.0 3.0 6 148
- 1.199088 1 2 tcp 1000 ------- 1 0.0 3.0 6 148
r 1.199888 0 1 tcp 1000 ------- 1 0.0 3.0 7 149
+ 1.199888 1 2 tcp 1000 ------- 1 0.0 3.0 7 149
- 1.199888 1 2 tcp 1000 ------- 1 0.0 3.0 7 149
+ 1.204 1 2 cbr 1000 ------- 2 1.0 2.0 138 151
- 1.204 1 2 cbr 1000 ------- 2 1.0 2.0 138 151
r 1.2068 1 2 cbr 1000 ------- 2 1.0 2.0 137 150
r 1.209088 1 2 tcp 1000 ------- 1 0.0 3.0 5 146
+ 1.209088 2 3 tcp 1000 ------- 1 0.0 3.0 5 146
- 1.209088 2 3 tcp 1000 ------- 1 0.0 3.0 5 146
r 1.209888 1 2 tcp 1000 ------- 1 0.0 3.0 6 148
+ 1.209888 2 3 tcp 1000 ------- 1 0.0 3.0 6 148
- 1.209888 2 3 tcp 1000 ------- 1 0.0 3.0 6 148
r 1.210688 1 2 tcp 1000 ------- 1 0.0 3.0 7 149
+ 1.210688 2 3 tcp 1000 ------- 1 0.0 3.0 7 149
- 1.210688 2 3 tcp 1000 ------- 1 0.0 3.0 7 149
+ 1.212 1 2 cbr 1000 ------- 2 1.0 2.0 139 152
- 1.212 1 2 cbr 1000 ------- 2 1.0 2.0 139 152
r 1.2148 1 2 cbr 1000 ------- 2 1.0 2.0 138 151
r 1.219888 2 3 tcp 1000 ------- 1 0.0 3.0 5 146
+ 1.219888 3 2 ack 40 ------- 1 3.0 0.0 5 153
- 1.219888 3 2 ack 40 ------- 1 3.0 0.0 5 153
+ 1.22 1 2 cbr 1000 ------- 2 1.0 2.0 140 154
- 1.22 1 2 cbr 1000 ------- 2 1.0 2.0 140 154
r 1.220688 2 3 tcp 1000 ------- 1 0.0 3.0 6 148
+ 1.220688 3 2 ack 40 ------- 1 3.0 0.0 6 155
- 1.220688 3 2 ack 40 ------- 1 3.0 0.0 6 155
r 1.221488 2 3 tcp 1000 ------- 1 0.0 3.0 7 149
+ 1.221488 3 2 ack 40 ------- 1 3.0 0.0 7 156
- 1.221488 3 2 ack 40 ------- 1 3.0 0.0 7 156
r 1.2228 1 2 cbr 1000 ------- 2 1.0 2.0 139 152
+ 1.228 1 2 cbr 1000 ------- 2 1.0 2.0 141 157
- 1.228 1 2 cbr 1000 ------- 2 1.0 2.0 141 157
r 1.22992 3 2 ack 40 ------- 1 3.0 0.0 5 153
+ 1.22992 2 1 ack 40 ------- 1 3.0 0.0 5 153
- 1.22992 2 1 ack 40 ------- 1 3.0 0.0 5 153
r 1.23072 3 2 ack 40 ------- 1 3.0 0.0 6 155
+ 1.23072 2 1 ack 40 ------- 1 3.0 0.0 6 155
- 1.23072 2 1 ack 40 ------- 1 3.0 0.0 6 155
r 1.2308 1 2 cbr 1000 ------- 2 1.0 2.0 140 154
r 1.23152 3 2 ack 40 ------- 1 3.0 0.0 7 156
+ 1.23152 2 1 ack 40 ------- 1 3.0 0.0 7 156
- 1.23152 2 1 ack 40 ------- 1 3.0 0.0 7 156
+ 1.236 1 2 cbr 1000 ------- 2 1.0 2.0 142 158
- 1.236 1 2 cbr 1000 ------- 2 1.0 2.0 142 158
r 1.2388 1 2 cbr 1000 ------- 2 1.0 2.0 141 157
r 1.239952 2 1 ack 40 ------- 1 3.0 0.0 5 153
+ 1.239952 1 0 ack 40 ------- 1 3.0 0.0 5 153
- 1.239952 1 0 ack 40 ------- 1 3.0 0.0 5 153
r 1.240752 2 1 ack 40 ------- 1 3.0 0.0 6 155
+ 1.240752 1 0 ack 40 ------- 1 3.0 0.0 6 155
- 1.240752 1 0 ack 40 ------- 1 3.0 0.0 6 155
r 1.241552 2 1 ack 40 ------- 1 3.0 0.0 7 156
+ 1.241552 1 0 ack 40 ------- 1 3.0 0.0 7 156
- 1.241552 1 0 ack 40 ------- 1 3.0 0.0 7 156
+ 1.244 1 2 cbr 1000 ------- 2 1.0 2.0 143 159
- 1.244 1 2 cbr 1000 ------- 2 1.0 2.0 143 159
r 1.2468 1 2 cbr 1000 ------- 2 1.0 2.0 142 158
r 1.249984 1 0 ack 40 ------- 1 3.0 0.0 5 153
+ 1.249984 0 1 tcp 1000 ------- 1 0.0 3.0 8 160
- 1.249984 0 1 tcp 1000 ------- 1 0.0 3.0 8 160
+ 1.249984 0 1 tcp 1000 ------- 1 0.0 3.0 9 161
r 1.250784 1 0 ack 40 ------- 1 3.0 0.0 6 155
+ 1.250784 0 1 tcp 1000 ------- 1 0.0 3.0 10 162
+ 1.250784 0 1 tcp 1000 ------- 1 0.0 3.0 11 163
- 1.250784 0 1 tcp 1000 ------- 1 0.0 3.0 9 161
r 1.251584 1 0 ack 40 ------- 1 3.0 0.0 7 156
+ 1.251584 0 1 tcp 1000 ------- 1 0.0 3.0 12 164
+ 1.251584 0 1 tcp 1000 ------- 1 0.0 3.0 13 165
- 1.251584 0 1 tcp 1000 ------- 1 0.0 3.0 10 162
+ 1.252 1 2 cbr 1000 ------- 2 1.0 2.0 144 166
- 1.252 1 2 cbr 1000 ------- 2 1.0 2.0 144 166
- 1.252384 0 1 tcp 1000 ------- 1 0.0 3.0 11 163
- 1.253184 0 1 tcp 1000 ------- 1 0.0 3.0 12 164
- 1.253984 0 1 tcp 1000 ------- 1 0.0 3.0 13 165
r 1.2548 1 2 cbr 1000 ------- 2 1.0 2.0 143 159
+ 1.26 1 2 cbr 1000 ------- 2 1.0 2.0 145 167
- 1.26 1 2 cbr 1000 ------- 2 1.0 2.0 145 167
r 1.260784 0 1 tcp 1000 ------- 1 0.0 3.0 8 160
+ 1.260784 1 2 tcp 1000 ------- 1 0.0 3.0 8 160
- 1.2608 1 2 tcp 1000 ------- 1 0.0 3.0 8 160
r 1.261584 0 1 tcp 1000 ------- 1 0.0 3.0 9 161
+ 1.261584 1 2 tcp 1000 ------- 1 0.0 3.0 9 161
- 1.2616 1 2 tcp 1000 ------- 1 0.0 3.0 9 161
r 1.262384 0 1 tcp 1000 ------- 1 0.0 3.0 10 162
+ 1.262384 1 2 tcp 1000 ------- 1 0.0 3.0 10 162
- 1.2624 1 2 tcp 1000 ------- 1 0.0 3.0 10 162
r 1.2628 1 2 cbr 1000 ------- 2 1.0 2.0 144 166
r 1.263184 0 1 tcp 1000 ------- 1 0.0 3.0 11 163
+ 1.263184 1 2 tcp 1000 ------- 1 0.0 3.0 11 163
- 1.2632 1 2 tcp 1000 ------- 1 0.0 3.0 11 163
r 1.263984 0 1 tcp 1000 ------- 1 0.0 3.0 12 164
+ 1.263984 1 2 tcp 1000 ------- 1 0.0 3.0 12 164
- 1.264 1 2 tcp 1000 ------- 1 0.0 3.0 12 164
r 1.264784 0 1 tcp 1000 ------- 1 0.0 3.0 13 165
+ 1.264784 1 2 tcp 1000 ------- 1 0.0 3.0 13 165
- 1.2648 1 2 tcp 1000 ------- 1 0.0 3.0 13 165
+ 1.268 1 2 cbr 1000 ------- 2 1.0 2.0 146 168
- 1.268 1 2 cbr 1000 ------- 2 1.0 2.0 146 168
r 1.2708 1 2 cbr 1000 ------- 2 1.0 2.0 145 167
r 1.2716 1 2 tcp 1000 ------- 1 0.0 3.0 8 160
+ 1.2716 2 3 tcp 1000 ------- 1 0.0 3.0 8 160
- 1.2716 2 3 tcp 1000 ------- 1 0.0 3.0 8 160
r 1.2724 1 2 tcp 1000 ------- 1 0.0 3.0 9 161
+ 1.2724 2 3 tcp 1000 ------- 1 0.0 3.0 9 161
- 1.2724 2 3 tcp 1000 ------- 1 0.0 3.0 9 161
r 1.2732 1 2 tcp 1000 ------- 1 0.0 3.0 10 162
+ 1.2732 2 3 tcp 1000 ------- 1 0.0 3.0 10 162
- 1.2732 2 3 tcp 1000 ------- 1 0.0 3.0 10 162
r 1.274 1 2 tcp 1000 ------- 1 0.0 3.0 11 163
+ 1.274 2 3 tcp 1000 ------- 1 0.0 3.0 11 163
- 1.274 2 3 tcp 1000 ------- 1 0.0 3.0 11 163
r 1.2748 1 2 tcp 1000 ------- 1 0.0 3.0 12 164
+ 1.2748 2 3 tcp 1000 ------- 1 0.0 3.0 12 164
- 1.2748 2 3 tcp 1000 ------- 1 0.0 3.0 12 164
r 1.2756 1 2 tcp 1000 ------- 1 0.0 3.0 13 165
+ 1.2756 2 3 tcp 1000 ------- 1 0.0 3.0 13 165
- 1.2756 2 3 tcp 1000 ------- 1 0.0 3.0 13 165
+ 1.276 1 2 cbr 1000 ------- 2 1.0 2.0 147 169
- 1.276 1 2 cbr 1000 ------- 2 1.0 2.0 147 169
r 1.2788 1 2 cbr 1000 ------- 2 1.0 2.0 146 168
r 1.2824 2 3 tcp 1000 ------- 1 0.0 3.0 8 160
+ 1.2824 3 2 ack 40 ------- 1 3.0 0.0 8 170
- 1.2824 3 2 ack 40 ------- 1 3.0 0.0 8 170
r 1.2832 2 3 tcp 1000 ------- 1 0.0 3.0 9 161
+ 1.2832 3 2 ack 40 ------- 1 3.0 0.0 9 171
- 1.2832 3 2 ack 40 ------- 1 3.0 0.0 9 171
r 1.284 2 3 tcp 1000 ------- 1 0.0 3.0 10 162
+ 1.284 3 2 ack 40 ------- 1 3.0 0.0 10 172
- 1.284 3 2 ack 40 ------- 1 3.0 0.0 10 172
+ 1.284 1 2 cbr 1000 ------- 2 1.0 2.0 148 173
- 1.284 1 2 cbr 1000 ------- 2 1.0 2.0 148 173
r 1.2848 2 3 tcp 1000 ------- 1 0.0 3.0 11 163
+ 1.2848 3 2 ack 40 ------- 1 3.0 0.0 11 174
- 1.2848 3 2 ack 40 ------- 1 3.0 0.0 11 174
r 1.2856 2 3 tcp 1000 ------- 1 0.0 3.0 12 164
+ 1.2856 3 2 ack 40 ------- 1 3.0 0.0 12 175